
        6699 atoms 
           2 atom types 
  -60.0000000       60.000000     xlo xhi 
  -60.0000000       60.000000     ylo yhi 
  -60.0000000       60.000000     zlo zhi 
 Atoms 

	1	1	0.000000000	0.000000000	0.000000000
	2	1	0.000000000	-2.872608556	0.251320683
	3	1	2.039000000	-1.561964620	-1.310643936
	4	1	2.039000000	-1.310643936	1.561964620
	5	2	-8.157000000	26.860934611	9.229067603
	6	2	-6.117000000	28.171578547	7.667102984
	7	2	-4.078000000	26.860934611	9.229067603
	8	1	-2.039000000	28.171578547	7.667102984
	9	2	0.000000000	26.860934611	9.229067603
	10	2	2.039000000	28.171578547	7.667102984
	11	2	4.078000000	26.860934611	9.229067603
	12	2	6.117000000	28.171578547	7.667102984
	13	1	8.157000000	26.860934611	9.229067603
	14	2	-12.235000000	24.239003951	12.353762887
	15	2	-10.196000000	25.550290675	10.791032223
	16	2	-8.157000000	24.239003951	12.353762887
	17	2	-6.117000000	25.550290675	10.791032223
	18	2	-6.117000000	25.800968571	13.664406823
	19	1	-4.078000000	27.112255294	12.101676159
	20	2	-4.078000000	24.239003951	12.353762887
	21	1	-2.039000000	25.550290675	10.791032223
	22	2	-2.039000000	25.800968571	13.664406823
	23	2	0.000000000	27.112255294	12.101676159
	24	1	0.000000000	24.239003951	12.353762887
	25	2	2.039000000	25.550290675	10.791032223
	26	2	2.039000000	25.800968571	13.664406823
	27	2	4.078000000	27.112255294	12.101676159
	28	2	4.078000000	24.239003951	12.353762887
	29	1	6.117000000	25.550290675	10.791032223
	30	1	6.117000000	25.800968571	13.664406823
	31	2	8.157000000	24.239003951	12.353762887
	32	2	10.196000000	25.550290675	10.791032223
	33	1	12.235000000	24.239003951	12.353762887
	34	2	-12.235000000	21.617716079	15.477692126
	35	2	-10.196000000	22.928360015	13.915727506
	36	2	-8.157000000	24.490324634	15.226371442
	37	2	-8.157000000	21.617716079	15.477692126
	38	2	-6.117000000	22.928360015	13.915727506
	39	2	-6.117000000	23.179680698	16.788336062
	40	2	-4.078000000	24.490324634	15.226371442
	41	1	-4.078000000	21.617716079	15.477692126
	42	2	-2.039000000	22.928360015	13.915727506
	43	2	-2.039000000	23.179680698	16.788336062
	44	2	0.000000000	24.490324634	15.226371442
	45	2	0.000000000	21.617716079	15.477692126
	46	2	2.039000000	22.928360015	13.915727506
	47	2	2.039000000	23.179680698	16.788336062
	48	2	4.078000000	24.490324634	15.226371442
	49	2	4.078000000	21.617716079	15.477692126
	50	2	6.117000000	22.928360015	13.915727506
	51	2	6.117000000	23.179680698	16.788336062
	52	2	8.157000000	24.490324634	15.226371442
	53	2	8.157000000	21.617716079	15.477692126
	54	2	10.196000000	22.928360015	13.915727506
	55	2	12.235000000	21.617716079	15.477692126
	56	2	-12.235000000	18.996428206	18.601621365
	57	2	-10.196000000	20.307072143	17.039656745
	58	2	-8.157000000	21.869036762	18.350300681
	59	2	-8.157000000	18.996428206	18.601621365
	60	2	-6.117000000	20.307072143	17.039656745
	61	2	-6.117000000	20.558392826	19.912265301
	62	2	-4.078000000	21.869036762	18.350300681
	63	2	-4.078000000	18.996428206	18.601621365
	64	2	-2.039000000	20.307072143	17.039656745
	65	2	-2.039000000	20.558392826	19.912265301
	66	2	0.000000000	21.869036762	18.350300681
	67	1	0.000000000	18.996428206	18.601621365
	68	2	2.039000000	20.307072143	17.039656745
	69	2	2.039000000	20.558392826	19.912265301
	70	2	4.078000000	21.869036762	18.350300681
	71	2	4.078000000	18.996428206	18.601621365
	72	2	6.117000000	20.307072143	17.039656745
	73	2	6.117000000	20.558392826	19.912265301
	74	2	8.157000000	21.869036762	18.350300681
	75	2	8.157000000	18.996428206	18.601621365
	76	2	10.196000000	20.307072143	17.039656745
	77	2	12.235000000	18.996428206	18.601621365
	78	2	-12.235000000	16.375140334	21.725550604
	79	2	-10.196000000	17.685784270	20.163585984
	80	2	-8.157000000	19.247748890	21.474229920
	81	2	-8.157000000	16.375140334	21.725550604
	82	2	-6.117000000	17.685784270	20.163585984
	83	2	-6.117000000	17.937104954	23.036194540
	84	2	-4.078000000	19.247748890	21.474229920
	85	2	-4.078000000	16.375140334	21.725550604
	86	1	-2.039000000	17.685784270	20.163585984
	87	2	-2.039000000	17.937104954	23.036194540
	88	2	0.000000000	19.247748890	21.474229920
	89	2	0.000000000	16.375140334	21.725550604
	90	2	2.039000000	17.685784270	20.163585984
	91	2	2.039000000	17.937104954	23.036194540
	92	2	4.078000000	19.247748890	21.474229920
	93	1	4.078000000	16.375140334	21.725550604
	94	2	6.117000000	17.685784270	20.163585984
	95	2	6.117000000	17.937104954	23.036194540
	96	1	8.157000000	19.247748890	21.474229920
	97	2	8.157000000	16.375140334	21.725550604
	98	2	10.196000000	17.685784270	20.163585984
	99	2	12.235000000	16.375140334	21.725550604
	100	2	-10.196000000	15.063853610	23.288281268
	101	2	-8.157000000	13.753209674	24.850245887
	102	2	-6.117000000	15.063853610	23.288281268
	103	2	-4.078000000	16.625818230	24.598925204
	104	2	-4.078000000	13.753209674	24.850245887
	105	2	-2.039000000	15.063853610	23.288281268
	106	2	0.000000000	16.625818230	24.598925204
	107	2	0.000000000	13.753209674	24.850245887
	108	1	2.039000000	15.063853610	23.288281268
	109	2	4.078000000	16.625818230	24.598925204
	110	2	4.078000000	13.753209674	24.850245887
	111	1	6.117000000	15.063853610	23.288281268
	112	2	8.157000000	13.753209674	24.850245887
	113	2	10.196000000	15.063853610	23.288281268
	114	2	-6.117000000	12.442565738	26.412210507
	115	2	-2.039000000	12.442565738	26.412210507
	116	1	2.039000000	12.442565738	26.412210507
	117	2	6.117000000	12.442565738	26.412210507
	118	2	-4.078000000	28.979581117	0.359921253
	119	2	0.000000000	28.979581117	0.359921253
	120	2	4.078000000	28.979581117	0.359921253
	121	1	-12.235000000	26.358293244	3.483850492
	122	2	-10.196000000	27.668937180	1.921885872
	123	2	-8.157000000	26.358293244	3.483850492
	124	2	-6.117000000	27.668937180	1.921885872
	125	2	-6.117000000	27.920257864	4.794494428
	126	2	-4.078000000	29.230901800	3.232529808
	127	2	-4.078000000	26.358293244	3.483850492
	128	2	-2.039000000	27.668937180	1.921885872
	129	2	-2.039000000	27.920257864	4.794494428
	130	2	0.000000000	29.230901800	3.232529808
	131	2	0.000000000	26.358293244	3.483850492
	132	2	2.039000000	27.668937180	1.921885872
	133	1	2.039000000	27.920257864	4.794494428
	134	2	4.078000000	29.230901800	3.232529808
	135	2	4.078000000	26.358293244	3.483850492
	136	1	6.117000000	27.668937180	1.921885872
	137	2	6.117000000	27.920257864	4.794494428
	138	2	8.157000000	26.358293244	3.483850492
	139	2	10.196000000	27.668937180	1.921885872
	140	2	12.235000000	26.358293244	3.483850492
	141	2	-16.313000000	23.737005372	6.607779731
	142	2	-14.274000000	25.047649308	5.045815111
	143	2	-12.235000000	26.609613928	6.356459047
	144	2	-12.235000000	23.737005372	6.607779731
	145	2	-10.196000000	25.047649308	5.045815111
	146	2	-10.196000000	25.298969991	7.918423667
	147	2	-8.157000000	26.609613928	6.356459047
	148	2	-8.157000000	23.737005372	6.607779731
	149	2	-6.117000000	25.047649308	5.045815111
	150	2	-6.117000000	25.298969991	7.918423667
	151	2	-4.078000000	26.609613928	6.356459047
	152	2	-4.078000000	23.737005372	6.607779731
	153	2	-2.039000000	25.047649308	5.045815111
	154	2	-2.039000000	25.298969991	7.918423667
	155	2	0.000000000	26.609613928	6.356459047
	156	2	0.000000000	23.737005372	6.607779731
	157	2	2.039000000	25.047649308	5.045815111
	158	2	2.039000000	25.298969991	7.918423667
	159	2	4.078000000	26.609613928	6.356459047
	160	2	4.078000000	23.737005372	6.607779731
	161	2	6.117000000	25.047649308	5.045815111
	162	2	6.117000000	25.298969991	7.918423667
	163	2	8.157000000	26.609613928	6.356459047
	164	1	8.157000000	23.737005372	6.607779731
	165	2	10.196000000	25.047649308	5.045815111
	166	2	10.196000000	25.298969991	7.918423667
	167	2	12.235000000	26.609613928	6.356459047
	168	2	12.235000000	23.737005372	6.607779731
	169	2	14.274000000	25.047649308	5.045815111
	170	2	16.313000000	23.737005372	6.607779731
	171	2	-16.313000000	21.115074712	9.732475014
	172	2	-14.274000000	22.426361436	8.169744350
	173	1	-14.274000000	22.677039332	11.043118950
	174	2	-12.235000000	23.988326055	9.480388287
	175	2	-12.235000000	21.115074712	9.732475014
	176	2	-10.196000000	22.426361436	8.169744350
	177	2	-10.196000000	22.677039332	11.043118950
	178	2	-8.157000000	23.988326055	9.480388287
	179	2	-8.157000000	21.115074712	9.732475014
	180	2	-6.117000000	22.426361436	8.169744350
	181	2	-6.117000000	22.677039332	11.043118950
	182	2	-4.078000000	23.988326055	9.480388287
	183	2	-4.078000000	21.115074712	9.732475014
	184	2	-2.039000000	22.426361436	8.169744350
	185	1	-2.039000000	22.677039332	11.043118950
	186	2	0.000000000	23.988326055	9.480388287
	187	2	0.000000000	21.115074712	9.732475014
	188	2	2.039000000	22.426361436	8.169744350
	189	2	2.039000000	22.677039332	11.043118950
	190	2	4.078000000	23.988326055	9.480388287
	191	1	4.078000000	21.115074712	9.732475014
	192	2	6.117000000	22.426361436	8.169744350
	193	2	6.117000000	22.677039332	11.043118950
	194	2	8.157000000	23.988326055	9.480388287
	195	2	8.157000000	21.115074712	9.732475014
	196	2	10.196000000	22.426361436	8.169744350
	197	2	10.196000000	22.677039332	11.043118950
	198	2	12.235000000	23.988326055	9.480388287
	199	2	12.235000000	21.115074712	9.732475014
	200	2	14.274000000	22.426361436	8.169744350
	201	2	14.274000000	22.677039332	11.043118950
	202	2	16.313000000	21.115074712	9.732475014
	203	2	-18.352000000	19.804430776	11.294439634
	204	1	-16.313000000	21.366395395	12.605083570
	205	2	-16.313000000	18.493786840	12.856404253
	206	2	-14.274000000	19.804430776	11.294439634
	207	2	-14.274000000	20.055751459	14.167048190
	208	2	-12.235000000	21.366395395	12.605083570
	209	2	-12.235000000	18.493786840	12.856404253
	210	1	-10.196000000	19.804430776	11.294439634
	211	1	-10.196000000	20.055751459	14.167048190
	212	2	-8.157000000	21.366395395	12.605083570
	213	2	-8.157000000	18.493786840	12.856404253
	214	2	-6.117000000	19.804430776	11.294439634
	215	2	-6.117000000	20.055751459	14.167048190
	216	2	-4.078000000	21.366395395	12.605083570
	217	2	-4.078000000	18.493786840	12.856404253
	218	2	-2.039000000	19.804430776	11.294439634
	219	2	-2.039000000	20.055751459	14.167048190
	220	2	0.000000000	21.366395395	12.605083570
	221	2	0.000000000	18.493786840	12.856404253
	222	2	2.039000000	19.804430776	11.294439634
	223	1	2.039000000	20.055751459	14.167048190
	224	2	4.078000000	21.366395395	12.605083570
	225	1	4.078000000	18.493786840	12.856404253
	226	2	6.117000000	19.804430776	11.294439634
	227	1	6.117000000	20.055751459	14.167048190
	228	2	8.157000000	21.366395395	12.605083570
	229	1	8.157000000	18.493786840	12.856404253
	230	2	10.196000000	19.804430776	11.294439634
	231	2	10.196000000	20.055751459	14.167048190
	232	2	12.235000000	21.366395395	12.605083570
	233	2	12.235000000	18.493786840	12.856404253
	234	2	14.274000000	19.804430776	11.294439634
	235	2	14.274000000	20.055751459	14.167048190
	236	2	16.313000000	21.366395395	12.605083570
	237	1	16.313000000	18.493786840	12.856404253
	238	2	18.352000000	19.804430776	11.294439634
	239	2	-18.352000000	17.183142904	14.418368873
	240	2	-16.313000000	18.745107523	15.729012809
	241	2	-16.313000000	15.872498967	15.980333492
	242	2	-14.274000000	17.183142904	14.418368873
	243	2	-14.274000000	17.434463587	17.290977429
	244	2	-12.235000000	18.745107523	15.729012809
	245	1	-12.235000000	15.872498967	15.980333492
	246	2	-10.196000000	17.183142904	14.418368873
	247	2	-10.196000000	17.434463587	17.290977429
	248	2	-8.157000000	18.745107523	15.729012809
	249	1	-8.157000000	15.872498967	15.980333492
	250	2	-6.117000000	17.183142904	14.418368873
	251	2	-6.117000000	17.434463587	17.290977429
	252	2	-4.078000000	18.745107523	15.729012809
	253	2	-4.078000000	15.872498967	15.980333492
	254	2	-2.039000000	17.183142904	14.418368873
	255	2	-2.039000000	17.434463587	17.290977429
	256	2	0.000000000	18.745107523	15.729012809
	257	2	0.000000000	15.872498967	15.980333492
	258	1	2.039000000	17.183142904	14.418368873
	259	1	2.039000000	17.434463587	17.290977429
	260	2	4.078000000	18.745107523	15.729012809
	261	2	4.078000000	15.872498967	15.980333492
	262	2	6.117000000	17.183142904	14.418368873
	263	2	6.117000000	17.434463587	17.290977429
	264	2	8.157000000	18.745107523	15.729012809
	265	1	8.157000000	15.872498967	15.980333492
	266	2	10.196000000	17.183142904	14.418368873
	267	2	10.196000000	17.434463587	17.290977429
	268	2	12.235000000	18.745107523	15.729012809
	269	1	12.235000000	15.872498967	15.980333492
	270	1	14.274000000	17.183142904	14.418368873
	271	2	14.274000000	17.434463587	17.290977429
	272	2	16.313000000	18.745107523	15.729012809
	273	2	16.313000000	15.872498967	15.980333492
	274	1	18.352000000	17.183142904	14.418368873
	275	2	-18.352000000	14.561855031	17.542298112
	276	2	-16.313000000	16.123819651	18.852942048
	277	2	-16.313000000	13.251211095	19.104262731
	278	2	-14.274000000	14.561855031	17.542298112
	279	1	-14.274000000	14.813175715	20.414906668
	280	2	-12.235000000	16.123819651	18.852942048
	281	2	-12.235000000	13.251211095	19.104262731
	282	2	-10.196000000	14.561855031	17.542298112
	283	1	-10.196000000	14.813175715	20.414906668
	284	2	-8.157000000	16.123819651	18.852942048
	285	2	-8.157000000	13.251211095	19.104262731
	286	2	-6.117000000	14.561855031	17.542298112
	287	2	-6.117000000	14.813175715	20.414906668
	288	2	-4.078000000	16.123819651	18.852942048
	289	1	-4.078000000	13.251211095	19.104262731
	290	2	-2.039000000	14.561855031	17.542298112
	291	2	-2.039000000	14.813175715	20.414906668
	292	2	0.000000000	16.123819651	18.852942048
	293	1	0.000000000	13.251211095	19.104262731
	294	1	2.039000000	14.561855031	17.542298112
	295	2	2.039000000	14.813175715	20.414906668
	296	2	4.078000000	16.123819651	18.852942048
	297	1	4.078000000	13.251211095	19.104262731
	298	2	6.117000000	14.561855031	17.542298112
	299	2	6.117000000	14.813175715	20.414906668
	300	2	8.157000000	16.123819651	18.852942048
	301	2	8.157000000	13.251211095	19.104262731
	302	2	10.196000000	14.561855031	17.542298112
	303	2	10.196000000	14.813175715	20.414906668
	304	1	12.235000000	16.123819651	18.852942048
	305	2	12.235000000	13.251211095	19.104262731
	306	2	14.274000000	14.561855031	17.542298112
	307	2	14.274000000	14.813175715	20.414906668
	308	2	16.313000000	16.123819651	18.852942048
	309	2	16.313000000	13.251211095	19.104262731
	310	2	18.352000000	14.561855031	17.542298112
	311	2	-16.313000000	10.629280435	22.228958015
	312	2	-14.274000000	11.939924371	20.666993395
	313	2	-12.235000000	13.501888991	21.977637332
	314	2	-12.235000000	10.629280435	22.228958015
	315	2	-10.196000000	11.939924371	20.666993395
	316	2	-10.196000000	12.191245055	23.539601951
	317	1	-8.157000000	13.501888991	21.977637332
	318	2	-8.157000000	10.629280435	22.228958015
	319	2	-6.117000000	11.939924371	20.666993395
	320	2	-6.117000000	12.191245055	23.539601951
	321	2	-4.078000000	13.501888991	21.977637332
	322	2	-4.078000000	10.629280435	22.228958015
	323	2	-2.039000000	11.939924371	20.666993395
	324	2	-2.039000000	12.191245055	23.539601951
	325	1	0.000000000	13.501888991	21.977637332
	326	2	0.000000000	10.629280435	22.228958015
	327	2	2.039000000	11.939924371	20.666993395
	328	2	2.039000000	12.191245055	23.539601951
	329	1	4.078000000	13.501888991	21.977637332
	330	2	4.078000000	10.629280435	22.228958015
	331	2	6.117000000	11.939924371	20.666993395
	332	1	6.117000000	12.191245055	23.539601951
	333	2	8.157000000	13.501888991	21.977637332
	334	1	8.157000000	10.629280435	22.228958015
	335	2	10.196000000	11.939924371	20.666993395
	336	2	10.196000000	12.191245055	23.539601951
	337	2	12.235000000	13.501888991	21.977637332
	338	2	12.235000000	10.629280435	22.228958015
	339	2	14.274000000	11.939924371	20.666993395
	340	2	16.313000000	10.629280435	22.228958015
	341	2	-14.274000000	9.318636499	23.790922634
	342	2	-12.235000000	10.880601119	25.101566571
	343	2	-12.235000000	8.007992563	25.352887254
	344	2	-10.196000000	9.318636499	23.790922634
	345	2	-8.157000000	10.880601119	25.101566571
	346	2	-8.157000000	8.007992563	25.352887254
	347	1	-6.117000000	9.318636499	23.790922634
	348	2	-6.117000000	9.569957182	26.663531190
	349	2	-4.078000000	10.880601119	25.101566571
	350	2	-4.078000000	8.007992563	25.352887254
	351	2	-2.039000000	9.318636499	23.790922634
	352	1	-2.039000000	9.569957182	26.663531190
	353	1	0.000000000	10.880601119	25.101566571
	354	2	0.000000000	8.007992563	25.352887254
	355	1	2.039000000	9.318636499	23.790922634
	356	2	2.039000000	9.569957182	26.663531190
	357	2	4.078000000	10.880601119	25.101566571
	358	2	4.078000000	8.007992563	25.352887254
	359	2	6.117000000	9.318636499	23.790922634
	360	2	6.117000000	9.569957182	26.663531190
	361	2	8.157000000	10.880601119	25.101566571
	362	2	8.157000000	8.007992563	25.352887254
	363	2	10.196000000	9.318636499	23.790922634
	364	2	12.235000000	10.880601119	25.101566571
	365	2	12.235000000	8.007992563	25.352887254
	366	2	14.274000000	9.318636499	23.790922634
	367	2	-10.196000000	6.697348627	26.914851873
	368	2	-6.117000000	6.697348627	26.914851873
	369	2	-4.078000000	8.259313246	28.225495810
	370	2	-4.078000000	5.386704691	28.476816493
	371	1	-2.039000000	6.697348627	26.914851873
	372	2	0.000000000	8.259313246	28.225495810
	373	1	0.000000000	5.386704691	28.476816493
	374	1	2.039000000	6.697348627	26.914851873
	375	2	4.078000000	8.259313246	28.225495810
	376	2	4.078000000	5.386704691	28.476816493
	377	2	6.117000000	6.697348627	26.914851873
	378	2	10.196000000	6.697348627	26.914851873
	379	2	-4.078000000	28.476816493	-5.386704691
	380	2	0.000000000	28.476816493	-5.386704691
	381	1	4.078000000	28.476816493	-5.386704691
	382	2	-12.235000000	25.854885833	-2.262009407
	383	2	-10.196000000	27.165529769	-3.823974027
	384	2	-10.196000000	27.416850453	-0.951365471
	385	1	-8.157000000	28.727494389	-2.513330091
	386	2	-8.157000000	25.854885833	-2.262009407
	387	2	-6.117000000	27.165529769	-3.823974027
	388	2	-6.117000000	27.416850453	-0.951365471
	389	2	-4.078000000	28.727494389	-2.513330091
	390	2	-4.078000000	25.854885833	-2.262009407
	391	2	-2.039000000	27.165529769	-3.823974027
	392	2	-2.039000000	27.416850453	-0.951365471
	393	2	0.000000000	28.727494389	-2.513330091
	394	2	0.000000000	25.854885833	-2.262009407
	395	1	2.039000000	27.165529769	-3.823974027
	396	1	2.039000000	27.416850453	-0.951365471
	397	2	4.078000000	28.727494389	-2.513330091
	398	1	4.078000000	25.854885833	-2.262009407
	399	2	6.117000000	27.165529769	-3.823974027
	400	2	6.117000000	27.416850453	-0.951365471
	401	2	8.157000000	28.727494389	-2.513330091
	402	2	8.157000000	25.854885833	-2.262009407
	403	2	10.196000000	27.165529769	-3.823974027
	404	1	10.196000000	27.416850453	-0.951365471
	405	2	12.235000000	25.854885833	-2.262009407
	406	2	-16.313000000	23.233597961	0.861919832
	407	2	-14.274000000	24.544241897	-0.700044788
	408	1	-14.274000000	24.795562580	2.172563768
	409	2	-12.235000000	26.106206516	0.610599149
	410	2	-12.235000000	23.233597961	0.861919832
	411	1	-10.196000000	24.544241897	-0.700044788
	412	2	-10.196000000	24.795562580	2.172563768
	413	2	-8.157000000	26.106206516	0.610599149
	414	2	-8.157000000	23.233597961	0.861919832
	415	2	-6.117000000	24.544241897	-0.700044788
	416	2	-6.117000000	24.795562580	2.172563768
	417	2	-4.078000000	26.106206516	0.610599149
	418	1	-4.078000000	23.233597961	0.861919832
	419	2	-2.039000000	24.544241897	-0.700044788
	420	2	-2.039000000	24.795562580	2.172563768
	421	2	0.000000000	26.106206516	0.610599149
	422	2	0.000000000	23.233597961	0.861919832
	423	2	2.039000000	24.544241897	-0.700044788
	424	2	2.039000000	24.795562580	2.172563768
	425	2	4.078000000	26.106206516	0.610599149
	426	2	4.078000000	23.233597961	0.861919832
	427	2	6.117000000	24.544241897	-0.700044788
	428	1	6.117000000	24.795562580	2.172563768
	429	2	8.157000000	26.106206516	0.610599149
	430	2	8.157000000	23.233597961	0.861919832
	431	2	10.196000000	24.544241897	-0.700044788
	432	2	10.196000000	24.795562580	2.172563768
	433	2	12.235000000	26.106206516	0.610599149
	434	2	12.235000000	23.233597961	0.861919832
	435	2	14.274000000	24.544241897	-0.700044788
	436	2	14.274000000	24.795562580	2.172563768
	437	1	16.313000000	23.233597961	0.861919832
	438	1	-20.391000000	20.612310088	3.985849071
	439	2	-18.352000000	21.922954025	2.423884451
	440	2	-18.352000000	22.174274708	5.296493007
	441	2	-16.313000000	23.484918644	3.734528388
	442	2	-16.313000000	20.612310088	3.985849071
	443	2	-14.274000000	21.922954025	2.423884451
	444	2	-14.274000000	22.174274708	5.296493007
	445	2	-12.235000000	23.484918644	3.734528388
	446	1	-12.235000000	20.612310088	3.985849071
	447	1	-10.196000000	21.922954025	2.423884451
	448	2	-10.196000000	22.174274708	5.296493007
	449	2	-8.157000000	23.484918644	3.734528388
	450	2	-8.157000000	20.612310088	3.985849071
	451	2	-6.117000000	21.922954025	2.423884451
	452	2	-6.117000000	22.174274708	5.296493007
	453	2	-4.078000000	23.484918644	3.734528388
	454	2	-4.078000000	20.612310088	3.985849071
	455	2	-2.039000000	21.922954025	2.423884451
	456	2	-2.039000000	22.174274708	5.296493007
	457	2	0.000000000	23.484918644	3.734528388
	458	2	0.000000000	20.612310088	3.985849071
	459	2	2.039000000	21.922954025	2.423884451
	460	2	2.039000000	22.174274708	5.296493007
	461	2	4.078000000	23.484918644	3.734528388
	462	2	4.078000000	20.612310088	3.985849071
	463	1	6.117000000	21.922954025	2.423884451
	464	1	6.117000000	22.174274708	5.296493007
	465	2	8.157000000	23.484918644	3.734528388
	466	2	8.157000000	20.612310088	3.985849071
	467	2	10.196000000	21.922954025	2.423884451
	468	1	10.196000000	22.174274708	5.296493007
	469	1	12.235000000	23.484918644	3.734528388
	470	2	12.235000000	20.612310088	3.985849071
	471	2	14.274000000	21.922954025	2.423884451
	472	2	14.274000000	22.174274708	5.296493007
	473	1	16.313000000	23.484918644	3.734528388
	474	2	16.313000000	20.612310088	3.985849071
	475	2	18.352000000	21.922954025	2.423884451
	476	2	18.352000000	22.174274708	5.296493007
	477	2	20.391000000	20.612310088	3.985849071
	478	2	-20.391000000	20.863630772	6.858457627
	479	1	-20.391000000	17.990379429	7.110544354
	480	2	-18.352000000	19.301666152	5.547813690
	481	2	-18.352000000	19.552344048	8.421188291
	482	2	-16.313000000	20.863630772	6.858457627
	483	2	-16.313000000	17.990379429	7.110544354
	484	1	-14.274000000	19.301666152	5.547813690
	485	2	-14.274000000	19.552344048	8.421188291
	486	2	-12.235000000	20.863630772	6.858457627
	487	2	-12.235000000	17.990379429	7.110544354
	488	2	-10.196000000	19.301666152	5.547813690
	489	2	-10.196000000	19.552344048	8.421188291
	490	2	-8.157000000	20.863630772	6.858457627
	491	1	-8.157000000	17.990379429	7.110544354
	492	1	-6.117000000	19.301666152	5.547813690
	493	2	-6.117000000	19.552344048	8.421188291
	494	1	-4.078000000	20.863630772	6.858457627
	495	1	-4.078000000	17.990379429	7.110544354
	496	2	-2.039000000	19.301666152	5.547813690
	497	2	-2.039000000	19.552344048	8.421188291
	498	2	0.000000000	20.863630772	6.858457627
	499	2	0.000000000	17.990379429	7.110544354
	500	2	2.039000000	19.301666152	5.547813690
	501	2	2.039000000	19.552344048	8.421188291
	502	2	4.078000000	20.863630772	6.858457627
	503	2	4.078000000	17.990379429	7.110544354
	504	2	6.117000000	19.301666152	5.547813690
	505	2	6.117000000	19.552344048	8.421188291
	506	2	8.157000000	20.863630772	6.858457627
	507	2	8.157000000	17.990379429	7.110544354
	508	2	10.196000000	19.301666152	5.547813690
	509	2	10.196000000	19.552344048	8.421188291
	510	2	12.235000000	20.863630772	6.858457627
	511	2	12.235000000	17.990379429	7.110544354
	512	1	14.274000000	19.301666152	5.547813690
	513	2	14.274000000	19.552344048	8.421188291
	514	2	16.313000000	20.863630772	6.858457627
	515	2	16.313000000	17.990379429	7.110544354
	516	2	18.352000000	19.301666152	5.547813690
	517	2	18.352000000	19.552344048	8.421188291
	518	2	20.391000000	20.863630772	6.858457627
	519	2	20.391000000	17.990379429	7.110544354
	520	2	-22.431000000	16.679735492	8.672508974
	521	2	-20.391000000	18.241700112	9.983152910
	522	2	-20.391000000	15.369091556	10.234473593
	523	2	-18.352000000	16.679735492	8.672508974
	524	2	-18.352000000	16.931056176	11.545117530
	525	2	-16.313000000	18.241700112	9.983152910
	526	2	-16.313000000	15.369091556	10.234473593
	527	1	-14.274000000	16.679735492	8.672508974
	528	2	-14.274000000	16.931056176	11.545117530
	529	2	-12.235000000	18.241700112	9.983152910
	530	2	-12.235000000	15.369091556	10.234473593
	531	2	-10.196000000	16.679735492	8.672508974
	532	1	-10.196000000	16.931056176	11.545117530
	533	2	-8.157000000	18.241700112	9.983152910
	534	2	-8.157000000	15.369091556	10.234473593
	535	2	-6.117000000	16.679735492	8.672508974
	536	2	-6.117000000	16.931056176	11.545117530
	537	2	-4.078000000	18.241700112	9.983152910
	538	2	-4.078000000	15.369091556	10.234473593
	539	2	-2.039000000	16.679735492	8.672508974
	540	2	-2.039000000	16.931056176	11.545117530
	541	2	0.000000000	18.241700112	9.983152910
	542	2	0.000000000	15.369091556	10.234473593
	543	2	2.039000000	16.679735492	8.672508974
	544	2	2.039000000	16.931056176	11.545117530
	545	2	4.078000000	18.241700112	9.983152910
	546	2	4.078000000	15.369091556	10.234473593
	547	1	6.117000000	16.679735492	8.672508974
	548	2	6.117000000	16.931056176	11.545117530
	549	2	8.157000000	18.241700112	9.983152910
	550	2	8.157000000	15.369091556	10.234473593
	551	2	10.196000000	16.679735492	8.672508974
	552	1	10.196000000	16.931056176	11.545117530
	553	2	12.235000000	18.241700112	9.983152910
	554	2	12.235000000	15.369091556	10.234473593
	555	1	14.274000000	16.679735492	8.672508974
	556	2	14.274000000	16.931056176	11.545117530
	557	2	16.313000000	18.241700112	9.983152910
	558	2	16.313000000	15.369091556	10.234473593
	559	2	18.352000000	16.679735492	8.672508974
	560	1	18.352000000	16.931056176	11.545117530
	561	2	20.391000000	18.241700112	9.983152910
	562	2	20.391000000	15.369091556	10.234473593
	563	2	22.431000000	16.679735492	8.672508974
	564	2	-22.431000000	14.058447620	11.796438213
	565	2	-20.391000000	15.620412240	13.107082149
	566	1	-20.391000000	12.747803684	13.358402832
	567	2	-18.352000000	14.058447620	11.796438213
	568	2	-18.352000000	14.309768303	14.669046769
	569	2	-16.313000000	15.620412240	13.107082149
	570	2	-16.313000000	12.747803684	13.358402832
	571	2	-14.274000000	14.058447620	11.796438213
	572	2	-14.274000000	14.309768303	14.669046769
	573	2	-12.235000000	15.620412240	13.107082149
	574	2	-12.235000000	12.747803684	13.358402832
	575	2	-10.196000000	14.058447620	11.796438213
	576	2	-10.196000000	14.309768303	14.669046769
	577	2	-8.157000000	15.620412240	13.107082149
	578	2	-8.157000000	12.747803684	13.358402832
	579	2	-6.117000000	14.058447620	11.796438213
	580	2	-6.117000000	14.309768303	14.669046769
	581	2	-4.078000000	15.620412240	13.107082149
	582	1	-4.078000000	12.747803684	13.358402832
	583	2	-2.039000000	14.058447620	11.796438213
	584	2	-2.039000000	14.309768303	14.669046769
	585	1	0.000000000	15.620412240	13.107082149
	586	2	0.000000000	12.747803684	13.358402832
	587	2	2.039000000	14.058447620	11.796438213
	588	2	2.039000000	14.309768303	14.669046769
	589	2	4.078000000	15.620412240	13.107082149
	590	2	4.078000000	12.747803684	13.358402832
	591	1	6.117000000	14.058447620	11.796438213
	592	2	6.117000000	14.309768303	14.669046769
	593	1	8.157000000	15.620412240	13.107082149
	594	2	8.157000000	12.747803684	13.358402832
	595	1	10.196000000	14.058447620	11.796438213
	596	2	10.196000000	14.309768303	14.669046769
	597	2	12.235000000	15.620412240	13.107082149
	598	1	12.235000000	12.747803684	13.358402832
	599	2	14.274000000	14.058447620	11.796438213
	600	2	14.274000000	14.309768303	14.669046769
	601	2	16.313000000	15.620412240	13.107082149
	602	2	16.313000000	12.747803684	13.358402832
	603	2	18.352000000	14.058447620	11.796438213
	604	2	18.352000000	14.309768303	14.669046769
	605	2	20.391000000	15.620412240	13.107082149
	606	2	20.391000000	12.747803684	13.358402832
	607	2	22.431000000	14.058447620	11.796438213
	608	2	-22.431000000	11.437159748	14.920367452
	609	2	-20.391000000	12.999124367	16.231011388
	610	2	-20.391000000	10.126515812	16.482332072
	611	2	-18.352000000	11.437159748	14.920367452
	612	2	-18.352000000	11.688480431	17.792976008
	613	2	-16.313000000	12.999124367	16.231011388
	614	2	-16.313000000	10.126515812	16.482332072
	615	2	-14.274000000	11.437159748	14.920367452
	616	2	-14.274000000	11.688480431	17.792976008
	617	2	-12.235000000	12.999124367	16.231011388
	618	2	-12.235000000	10.126515812	16.482332072
	619	2	-10.196000000	11.437159748	14.920367452
	620	1	-10.196000000	11.688480431	17.792976008
	621	2	-8.157000000	12.999124367	16.231011388
	622	2	-8.157000000	10.126515812	16.482332072
	623	2	-6.117000000	11.437159748	14.920367452
	624	2	-6.117000000	11.688480431	17.792976008
	625	1	-4.078000000	12.999124367	16.231011388
	626	2	-4.078000000	10.126515812	16.482332072
	627	2	-2.039000000	11.437159748	14.920367452
	628	2	-2.039000000	11.688480431	17.792976008
	629	2	0.000000000	12.999124367	16.231011388
	630	1	0.000000000	10.126515812	16.482332072
	631	2	2.039000000	11.437159748	14.920367452
	632	2	2.039000000	11.688480431	17.792976008
	633	2	4.078000000	12.999124367	16.231011388
	634	1	4.078000000	10.126515812	16.482332072
	635	2	6.117000000	11.437159748	14.920367452
	636	2	6.117000000	11.688480431	17.792976008
	637	2	8.157000000	12.999124367	16.231011388
	638	2	8.157000000	10.126515812	16.482332072
	639	1	10.196000000	11.437159748	14.920367452
	640	2	10.196000000	11.688480431	17.792976008
	641	1	12.235000000	12.999124367	16.231011388
	642	1	12.235000000	10.126515812	16.482332072
	643	2	14.274000000	11.437159748	14.920367452
	644	1	14.274000000	11.688480431	17.792976008
	645	2	16.313000000	12.999124367	16.231011388
	646	2	16.313000000	10.126515812	16.482332072
	647	2	18.352000000	11.437159748	14.920367452
	648	2	18.352000000	11.688480431	17.792976008
	649	2	20.391000000	12.999124367	16.231011388
	650	2	20.391000000	10.126515812	16.482332072
	651	2	22.431000000	11.437159748	14.920367452
	652	2	-20.391000000	10.377193707	19.355706672
	653	2	-20.391000000	7.504585152	19.607027355
	654	2	-18.352000000	8.815229088	18.045062735
	655	2	-18.352000000	9.066549771	20.917671291
	656	2	-16.313000000	10.377193707	19.355706672
	657	1	-16.313000000	7.504585152	19.607027355