
       42592 atoms
           2 atom types
  -74.0200005       160.260002     xlo xhi
  -74.0200005       160.260002     ylo yhi
  -74.0200005       160.260002     zlo zhi
 Atoms

           1           1  0.980000019      0.980000019      0.980000019    
           2           1  0.980000019       2.94000006       2.94000006    
           3           1   2.94000006      0.980000019       2.94000006    
           4           1   2.94000006       2.94000006      0.980000019    
           5           2  0.980000019      0.980000019       4.90000010    
           6           1  0.980000019       2.94000006       6.86000013    
           7           1   2.94000006      0.980000019       6.86000013    
           8           1   2.94000006       2.94000006       4.90000010    
           9           1  0.980000019      0.980000019       8.81999969    
          10           1  0.980000019       2.94000006       10.7799997    
          11           1   2.94000006      0.980000019       10.7799997    
          12           2   2.94000006       2.94000006       8.81999969    
          13           1  0.980000019      0.980000019       12.7399998    
          14           1  0.980000019       2.94000006       14.6999998    
          15           1   2.94000006      0.980000019       14.6999998    
          16           2   2.94000006       2.94000006       12.7399998    
          17           1  0.980000019      0.980000019       16.6599998    
          18           1  0.980000019       2.94000006       18.6200008    
          19           2   2.94000006      0.980000019       18.6200008    
          20           1   2.94000006       2.94000006       16.6599998    
          21           2  0.980000019      0.980000019       20.5799999    
          22           2  0.980000019       2.94000006       22.5400009    
          23           1   2.94000006      0.980000019       22.5400009    
          24           2   2.94000006       2.94000006       20.5799999    
          25           1  0.980000019      0.980000019       24.5000000    
          26           1  0.980000019       2.94000006       26.4599991    
          27           1   2.94000006      0.980000019       26.4599991    
          28           1   2.94000006       2.94000006       24.5000000    
          29           2  0.980000019      0.980000019       28.4200001    
          30           1  0.980000019       2.94000006       30.3799992    
          31           1   2.94000006      0.980000019       30.3799992    
          32           1   2.94000006       2.94000006       28.4200001    
          33           1  0.980000019      0.980000019       32.3400002    
          34           1  0.980000019       2.94000006       34.2999992    
          35           1   2.94000006      0.980000019       34.2999992    
          36           1   2.94000006       2.94000006       32.3400002    
          37           2  0.980000019      0.980000019       36.2599983    
          38           1  0.980000019       2.94000006       38.2200012    
          39           1   2.94000006      0.980000019       38.2200012    
          40           2   2.94000006       2.94000006       36.2599983    
          41           1  0.980000019      0.980000019       40.1800003    
          42           1  0.980000019       2.94000006       42.1399994    
          43           1   2.94000006      0.980000019       42.1399994    
          44           1   2.94000006       2.94000006       40.1800003    
          45           2  0.980000019      0.980000019       44.0999985    
          46           1  0.980000019       2.94000006       46.0600014    
          47           1   2.94000006      0.980000019       46.0600014    
          48           2   2.94000006       2.94000006       44.0999985    
          49           2  0.980000019      0.980000019       48.0200005    
          50           1  0.980000019       2.94000006       49.9799995    
          51           1   2.94000006      0.980000019       49.9799995    
          52           1   2.94000006       2.94000006       48.0200005    
          53           1  0.980000019      0.980000019       51.9399986    
          54           1  0.980000019       2.94000006       53.9000015    
          55           1   2.94000006      0.980000019       53.9000015    
          56           1   2.94000006       2.94000006       51.9399986    
          57           2  0.980000019      0.980000019       55.8600006    
          58           2  0.980000019       2.94000006       57.8199997    
          59           1   2.94000006      0.980000019       57.8199997    
          60           1   2.94000006       2.94000006       55.8600006    
          61           1  0.980000019      0.980000019       59.7799988    
          62           1  0.980000019       2.94000006       61.7400017    
          63           1   2.94000006      0.980000019       61.7400017    
          64           1   2.94000006       2.94000006       59.7799988    
          65           1  0.980000019      0.980000019       63.7000008    
          66           1  0.980000019       2.94000006       65.6600037    
          67           1   2.94000006      0.980000019       65.6600037    
          68           1   2.94000006       2.94000006       63.7000008    
          69           1  0.980000019      0.980000019       67.6200027    
          70           2  0.980000019       2.94000006       69.5800018    
          71           2   2.94000006      0.980000019       69.5800018    
          72           1   2.94000006       2.94000006       67.6200027    
          73           1  0.980000019      0.980000019       71.5400009    
          74           1  0.980000019       2.94000006       73.5000000    
          75           1   2.94000006      0.980000019       73.5000000    
          76           2   2.94000006       2.94000006       71.5400009    
          77           1  0.980000019      0.980000019       75.4599991    
          78           1  0.980000019       2.94000006       77.4199982    
          79           1   2.94000006      0.980000019       77.4199982    
          80           2   2.94000006       2.94000006       75.4599991    
          81           1  0.980000019      0.980000019       79.3799973    
          82           1  0.980000019       2.94000006       81.3399963    
          83           2   2.94000006      0.980000019       81.3399963    
          84           1   2.94000006       2.94000006       79.3799973    
          85           1  0.980000019      0.980000019       83.3000031    
          86           2  0.980000019       2.94000006       85.2600021    
          87           1   2.94000006      0.980000019       85.2600021    
          88           1   2.94000006       2.94000006       83.3000031    
          89           1  0.980000019       4.90000010      0.980000019    
          90           1  0.980000019       6.86000013       2.94000006    
          91           1   2.94000006       4.90000010       2.94000006    
          92           2   2.94000006       6.86000013      0.980000019    
          93           1  0.980000019       4.90000010       4.90000010    
          94           2  0.980000019       6.86000013       6.86000013    
          95           2   2.94000006       4.90000010       6.86000013    
          96           1   2.94000006       6.86000013       4.90000010    
          97           2  0.980000019       4.90000010       8.81999969    
          98           1  0.980000019       6.86000013       10.7799997    
          99           1   2.94000006       4.90000010       10.7799997    
         100           2   2.94000006       6.86000013       8.81999969    
         101           1  0.980000019       4.90000010       12.7399998    
         102           2  0.980000019       6.86000013       14.6999998    
         103           1   2.94000006       4.90000010       14.6999998    
         104           1   2.94000006       6.86000013       12.7399998    
         105           1  0.980000019       4.90000010       16.6599998    
         106           2  0.980000019       6.86000013       18.6200008    
         107           1   2.94000006       4.90000010       18.6200008    
         108           1   2.94000006       6.86000013       16.6599998    
         109           1  0.980000019       4.90000010       20.5799999    
         110           1  0.980000019       6.86000013       22.5400009    
         111           1   2.94000006       4.90000010       22.5400009    
         112           1   2.94000006       6.86000013       20.5799999    
         113           1  0.980000019       4.90000010       24.5000000    
         114           1  0.980000019       6.86000013       26.4599991    
         115           2   2.94000006       4.90000010       26.4599991    
         116           2   2.94000006       6.86000013       24.5000000    
         117           1  0.980000019       4.90000010       28.4200001    
         118           2  0.980000019       6.86000013       30.3799992    
         119           1   2.94000006       4.90000010       30.3799992    
         120           1   2.94000006       6.86000013       28.4200001    
         121           1  0.980000019       4.90000010       32.3400002    
         122           2  0.980000019       6.86000013       34.2999992    
         123           1   2.94000006       4.90000010       34.2999992    
         124           1   2.94000006       6.86000013       32.3400002    
         125           1  0.980000019       4.90000010       36.2599983    
         126           1  0.980000019       6.86000013       38.2200012    
         127           1   2.94000006       4.90000010       38.2200012    
         128           1   2.94000006       6.86000013       36.2599983    
         129           1  0.980000019       4.90000010       40.1800003    
         130           2  0.980000019       6.86000013       42.1399994    
         131           2   2.94000006       4.90000010       42.1399994    
         132           1   2.94000006       6.86000013       40.1800003    
         133           1  0.980000019       4.90000010       44.0999985    
         134           1  0.980000019       6.86000013       46.0600014    
         135           1   2.94000006       4.90000010       46.0600014    
         136           2   2.94000006       6.86000013       44.0999985    
         137           1  0.980000019       4.90000010       48.0200005    
         138           1  0.980000019       6.86000013       49.9799995    
         139           2   2.94000006       4.90000010       49.9799995    
         140           1   2.94000006       6.86000013       48.0200005    
         141           1  0.980000019       4.90000010       51.9399986    
         142           2  0.980000019       6.86000013       53.9000015    
         143           2   2.94000006       4.90000010       53.9000015    
         144           1   2.94000006       6.86000013       51.9399986    
         145           1  0.980000019       4.90000010       55.8600006    
         146           1  0.980000019       6.86000013       57.8199997    
         147           1   2.94000006       4.90000010       57.8199997    
         148           1   2.94000006       6.86000013       55.8600006    
         149           1  0.980000019       4.90000010       59.7799988    
         150           2  0.980000019       6.86000013       61.7400017    
         151           2   2.94000006       4.90000010       61.7400017    
         152           1   2.94000006       6.86000013       59.7799988    
         153           1  0.980000019       4.90000010       63.7000008    
         154           1  0.980000019       6.86000013       65.6600037    
         155           1   2.94000006       4.90000010       65.6600037    
         156           1   2.94000006       6.86000013       63.7000008    
         157           1  0.980000019       4.90000010       67.6200027    
         158           1  0.980000019       6.86000013       69.5800018    
         159           1   2.94000006       4.90000010       69.5800018    
         160           2   2.94000006       6.86000013       67.6200027    
         161           1  0.980000019       4.90000010       71.5400009    
         162           1  0.980000019       6.86000013       73.5000000    
         163           1   2.94000006       4.90000010       73.5000000    
         164           1   2.94000006       6.86000013       71.5400009    
         165           1  0.980000019       4.90000010       75.4599991    
         166           1  0.980000019       6.86000013       77.4199982    
         167           1   2.94000006       4.90000010       77.4199982    
         168           1   2.94000006       6.86000013       75.4599991    
         169           1  0.980000019       4.90000010       79.3799973    
         170           1  0.980000019       6.86000013       81.3399963    
         171           1   2.94000006       4.90000010       81.3399963    
         172           1   2.94000006       6.86000013       79.3799973    
         173           2  0.980000019       4.90000010       83.3000031    
         174           2  0.980000019       6.86000013       85.2600021    
         175           1   2.94000006       4.90000010       85.2600021    
         176           1   2.94000006       6.86000013       83.3000031    
         177           1  0.980000019       8.81999969      0.980000019    
         178           1  0.980000019       10.7799997       2.94000006    
         179           1   2.94000006       8.81999969       2.94000006    
         180           1   2.94000006       10.7799997      0.980000019    
         181           1  0.980000019       8.81999969       4.90000010    
         182           1  0.980000019       10.7799997       6.86000013    
         183           2   2.94000006       8.81999969       6.86000013    
         184           2   2.94000006       10.7799997       4.90000010    
         185           2  0.980000019       8.81999969       8.81999969    
         186           1  0.980000019       10.7799997       10.7799997    
         187           1   2.94000006       8.81999969       10.7799997    
         188           1   2.94000006       10.7799997       8.81999969    
         189           1  0.980000019       8.81999969       12.7399998    
         190           2  0.980000019       10.7799997       14.6999998    
         191           1   2.94000006       8.81999969       14.6999998    
         192           2   2.94000006       10.7799997       12.7399998    
         193           1  0.980000019       8.81999969       16.6599998    
         194           1  0.980000019       10.7799997       18.6200008    
         195           2   2.94000006       8.81999969       18.6200008    
         196           1   2.94000006       10.7799997       16.6599998    
         197           1  0.980000019       8.81999969       20.5799999    
         198           1  0.980000019       10.7799997       22.5400009    
         199           1   2.94000006       8.81999969       22.5400009    
         200           1   2.94000006       10.7799997       20.5799999    
         201           1  0.980000019       8.81999969       24.5000000    
         202           1  0.980000019       10.7799997       26.4599991    
         203           1   2.94000006       8.81999969       26.4599991    
         204           1   2.94000006       10.7799997       24.5000000    
         205           1  0.980000019       8.81999969       28.4200001    
         206           1  0.980000019       10.7799997       30.3799992    
         207           2   2.94000006       8.81999969       30.3799992    
         208           1   2.94000006       10.7799997       28.4200001    
         209           1  0.980000019       8.81999969       32.3400002    
         210           1  0.980000019       10.7799997       34.2999992    
         211           1   2.94000006       8.81999969       34.2999992    
         212           1   2.94000006       10.7799997       32.3400002    
         213           1  0.980000019       8.81999969       36.2599983    
         214           2  0.980000019       10.7799997       38.2200012    
         215           1   2.94000006       8.81999969       38.2200012    
         216           1   2.94000006       10.7799997       36.2599983    
         217           2  0.980000019       8.81999969       40.1800003    
         218           1  0.980000019       10.7799997       42.1399994    
         219           1   2.94000006       8.81999969       42.1399994    
         220           1   2.94000006       10.7799997       40.1800003    
         221           1  0.980000019       8.81999969       44.0999985    
         222           1  0.980000019       10.7799997       46.0600014    
         223           1   2.94000006       8.81999969       46.0600014    
         224           1   2.94000006       10.7799997       44.0999985    
         225           1  0.980000019       8.81999969       48.0200005    
         226           1  0.980000019       10.7799997       49.9799995    
         227           2   2.94000006       8.81999969       49.9799995    
         228           2   2.94000006       10.7799997       48.0200005    
         229           1  0.980000019       8.81999969       51.9399986    
         230           1  0.980000019       10.7799997       53.9000015    
         231           2   2.94000006       8.81999969       53.9000015    
         232           2   2.94000006       10.7799997       51.9399986    
         233           1  0.980000019       8.81999969       55.8600006    
         234           1  0.980000019       10.7799997       57.8199997    
         235           1   2.94000006       8.81999969       57.8199997    
         236           1   2.94000006       10.7799997       55.8600006    
         237           1  0.980000019       8.81999969       59.7799988    
         238           1  0.980000019       10.7799997       61.7400017    
         239           1   2.94000006       8.81999969       61.7400017    
         240           2   2.94000006       10.7799997       59.7799988    
         241           2  0.980000019       8.81999969       63.7000008    
         242           1  0.980000019       10.7799997       65.6600037    
         243           2   2.94000006       8.81999969       65.6600037    
         244           1   2.94000006       10.7799997       63.7000008    
         245           2  0.980000019       8.81999969       67.6200027    
         246           1  0.980000019       10.7799997       69.5800018    
         247           1   2.94000006       8.81999969       69.5800018    
         248           1   2.94000006       10.7799997       67.6200027    
         249           1  0.980000019       8.81999969       71.5400009    
         250           1  0.980000019       10.7799997       73.5000000    
         251           1   2.94000006       8.81999969       73.5000000    
         252           1   2.94000006       10.7799997       71.5400009    
         253           1  0.980000019       8.81999969       75.4599991    
         254           1  0.980000019       10.7799997       77.4199982    
         255           1   2.94000006       8.81999969       77.4199982    
         256           2   2.94000006       10.7799997       75.4599991    
         257           1  0.980000019       8.81999969       79.3799973    
         258           1  0.980000019       10.7799997       81.3399963    
         259           1   2.94000006       8.81999969       81.3399963    
         260           1   2.94000006       10.7799997       79.3799973    
         261           1  0.980000019       8.81999969       83.3000031    
         262           1  0.980000019       10.7799997       85.2600021    
         263           2   2.94000006       8.81999969       85.2600021    
         264           1   2.94000006       10.7799997       83.3000031    
         265           1  0.980000019       12.7399998      0.980000019    
         266           1  0.980000019       14.6999998       2.94000006    
         267           2   2.94000006       12.7399998       2.94000006    
         268           1   2.94000006       14.6999998      0.980000019    
         269           1  0.980000019       12.7399998       4.90000010    
         270           1  0.980000019       14.6999998       6.86000013    
         271           1   2.94000006       12.7399998       6.86000013    
         272           1   2.94000006       14.6999998       4.90000010    
         273           1  0.980000019       12.7399998       8.81999969    
         274           1  0.980000019       14.6999998       10.7799997    
         275           2   2.94000006       12.7399998       10.7799997    
         276           1   2.94000006       14.6999998       8.81999969    
         277           2  0.980000019       12.7399998       12.7399998    
         278           1  0.980000019       14.6999998       14.6999998    
         279           1   2.94000006       12.7399998       14.6999998    
         280           1   2.94000006       14.6999998       12.7399998    
         281           1  0.980000019       12.7399998       16.6599998    
         282           1  0.980000019       14.6999998       18.6200008    
         283           1   2.94000006       12.7399998       18.6200008    
         284           1   2.94000006       14.6999998       16.6599998    
         285           2  0.980000019       12.7399998       20.5799999    
         286           1  0.980000019       14.6999998       22.5400009    
         287           1   2.94000006       12.7399998       22.5400009    
         288           1   2.94000006       14.6999998       20.5799999    
         289           2  0.980000019       12.7399998       24.5000000    
         290           1  0.980000019       14.6999998       26.4599991    
         291           1   2.94000006       12.7399998       26.4599991    
         292           1   2.94000006       14.6999998       24.5000000    
         293           1  0.980000019       12.7399998       28.4200001    
         294           2  0.980000019       14.6999998       30.3799992    
         295           1   2.94000006       12.7399998       30.3799992    
         296           1   2.94000006       14.6999998       28.4200001    
         297           1  0.980000019       12.7399998       32.3400002    
         298           2  0.980000019       14.6999998       34.2999992    
         299           1   2.94000006       12.7399998       34.2999992    
         300           1   2.94000006       14.6999998       32.3400002    
         301           1  0.980000019       12.7399998       36.2599983    
         302           2  0.980000019       14.6999998       38.2200012    
         303           1   2.94000006       12.7399998       38.2200012    
         304           1   2.94000006       14.6999998       36.2599983    
         305           1  0.980000019       12.7399998       40.1800003    
         306           1  0.980000019       14.6999998       42.1399994    
         307           1   2.94000006       12.7399998       42.1399994    
         308           1   2.94000006       14.6999998       40.1800003    
         309           1  0.980000019       12.7399998       44.0999985    
         310           1  0.980000019       14.6999998       46.0600014    
         311           2   2.94000006       12.7399998       46.0600014    
         312           1   2.94000006       14.6999998       44.0999985    
         313           1  0.980000019       12.7399998       48.0200005    
         314           1  0.980000019       14.6999998       49.9799995    
         315           1   2.94000006       12.7399998       49.9799995    
         316           1   2.94000006       14.6999998       48.0200005    
         317           1  0.980000019       12.7399998       51.9399986    
         318           2  0.980000019       14.6999998       53.9000015    
         319           2   2.94000006       12.7399998       53.9000015    
         320           1   2.94000006       14.6999998       51.9399986    
         321           1  0.980000019       12.7399998       55.8600006    
         322           2  0.980000019       14.6999998       57.8199997    
         323           2   2.94000006       12.7399998       57.8199997    
         324           1   2.94000006       14.6999998       55.8600006    
         325           2  0.980000019       12.7399998       59.7799988    
         326           1  0.980000019       14.6999998       61.7400017    
         327           1   2.94000006       12.7399998       61.7400017    
         328           1   2.94000006       14.6999998       59.7799988    
         329           1  0.980000019       12.7399998       63.7000008    
         330           2  0.980000019       14.6999998       65.6600037    
         331           1   2.94000006       12.7399998       65.6600037    
         332           1   2.94000006       14.6999998       63.7000008    
         333           1  0.980000019       12.7399998       67.6200027    
         334           1  0.980000019       14.6999998       69.5800018    
         335           1   2.94000006       12.7399998       69.5800018    
         336           1   2.94000006       14.6999998       67.6200027    
         337           1  0.980000019       12.7399998       71.5400009    
         338           1  0.980000019       14.6999998       73.5000000    
         339           2   2.94000006       12.7399998       73.5000000    
         340           1   2.94000006       14.6999998       71.5400009    
         341           2  0.980000019       12.7399998       75.4599991    
         342           1  0.980000019       14.6999998       77.4199982    
         343           2   2.94000006       12.7399998       77.4199982    
         344           1   2.94000006       14.6999998       75.4599991    
         345           1  0.980000019       12.7399998       79.3799973    
         346           1  0.980000019       14.6999998       81.3399963    
         347           1   2.94000006       12.7399998       81.3399963    
         348           1   2.94000006       14.6999998       79.3799973    
         349           1  0.980000019       12.7399998       83.3000031    
         350           1  0.980000019       14.6999998       85.2600021    
         351           1   2.94000006       12.7399998       85.2600021    
         352           1   2.94000006       14.6999998       83.3000031    
         353           1  0.980000019       16.6599998      0.980000019    
         354           1  0.980000019       18.6200008       2.94000006    
         355           1   2.94000006       16.6599998       2.94000006    
         356           1   2.94000006       18.6200008      0.980000019    
         357           1  0.980000019       16.6599998       4.90000010    
         358           1  0.980000019       18.6200008       6.86000013    
         359           1   2.94000006       16.6599998       6.86000013    
         360           1   2.94000006       18.6200008       4.90000010    
         361           2  0.980000019       16.6599998       8.81999969    
         362           1  0.980000019       18.6200008       10.7799997    
         363           1   2.94000006       16.6599998       10.7799997    
         364           1   2.94000006       18.6200008       8.81999969    
         365           1  0.980000019       16.6599998       12.7399998    
         366           1  0.980000019       18.6200008       14.6999998    
         367           1   2.94000006       16.6599998       14.6999998    
         368           1   2.94000006       18.6200008       12.7399998    
         369           1  0.980000019       16.6599998       16.6599998    
         370           1  0.980000019       18.6200008       18.6200008    
         371           2   2.94000006       16.6599998       18.6200008    
         372           2   2.94000006       18.6200008       16.6599998    
         373           1  0.980000019       16.6599998       20.5799999    
         374           2  0.980000019       18.6200008       22.5400009    
         375           1   2.94000006       16.6599998       22.5400009    
         376           2   2.94000006       18.6200008       20.5799999    
         377           2  0.980000019       16.6599998       24.5000000    
         378           2  0.980000019       18.6200008       26.4599991    
         379           1   2.94000006       16.6599998       26.4599991    
         380           1   2.94000006       18.6200008       24.5000000    
         381           1  0.980000019       16.6599998       28.4200001    
         382           1  0.980000019       18.6200008       30.3799992    
         383           1   2.94000006       16.6599998       30.3799992    
         384           2   2.94000006       18.6200008       28.4200001    
         385           1  0.980000019       16.6599998       32.3400002    
         386           1  0.980000019       18.6200008       34.2999992    
         387           1   2.94000006       16.6599998       34.2999992    
         388           2   2.94000006       18.6200008       32.3400002    
         389           1  0.980000019       16.6599998       36.2599983    
         390           2  0.980000019       18.6200008       38.2200012    
         391           1   2.94000006       16.6599998       38.2200012    
         392           1   2.94000006       18.6200008       36.2599983    