
        6699 atoms 
           2 atom types 
  -60.0000000       60.000000     xlo xhi 
  -60.0000000       60.000000     ylo yhi 
  -60.0000000       60.000000     zlo zhi 
 Atoms 

	1	1	0.000000000	0.000000000	0.000000000
	2	1	0.000000000	2.872608556	0.251320683
	3	1	2.039000000	1.310643936	1.561964620
	4	1	2.039000000	1.561964620	-1.310643936
	5	2	-8.157000000	-24.850245887	-13.753209674
	6	2	-6.117000000	-26.412210507	-12.442565738
	7	2	-4.078000000	-24.850245887	-13.753209674
	8	2	-2.039000000	-26.412210507	-12.442565738
	9	2	0.000000000	-24.850245887	-13.753209674
	10	2	2.039000000	-26.412210507	-12.442565738
	11	2	4.078000000	-24.850245887	-13.753209674
	12	2	6.117000000	-26.412210507	-12.442565738
	13	2	8.157000000	-24.850245887	-13.753209674
	14	2	-12.235000000	-21.725550604	-16.375140334
	15	2	-10.196000000	-23.288281268	-15.063853610
	16	2	-8.157000000	-21.725550604	-16.375140334
	17	2	-6.117000000	-23.288281268	-15.063853610
	18	2	-6.117000000	-23.036194540	-17.937104954
	19	2	-4.078000000	-24.598925204	-16.625818230
	20	2	-4.078000000	-21.725550604	-16.375140334
	21	2	-2.039000000	-23.288281268	-15.063853610
	22	2	-2.039000000	-23.036194540	-17.937104954
	23	2	0.000000000	-24.598925204	-16.625818230
	24	1	0.000000000	-21.725550604	-16.375140334
	25	1	2.039000000	-23.288281268	-15.063853610
	26	2	2.039000000	-23.036194540	-17.937104954
	27	2	4.078000000	-24.598925204	-16.625818230
	28	1	4.078000000	-21.725550604	-16.375140334
	29	2	6.117000000	-23.288281268	-15.063853610
	30	2	6.117000000	-23.036194540	-17.937104954
	31	2	8.157000000	-21.725550604	-16.375140334
	32	2	10.196000000	-23.288281268	-15.063853610
	33	2	12.235000000	-21.725550604	-16.375140334
	34	2	-12.235000000	-18.601621365	-18.996428206
	35	2	-10.196000000	-20.163585984	-17.685784270
	36	2	-8.157000000	-21.474229920	-19.247748890
	37	2	-8.157000000	-18.601621365	-18.996428206
	38	2	-6.117000000	-20.163585984	-17.685784270
	39	2	-6.117000000	-19.912265301	-20.558392826
	40	2	-4.078000000	-21.474229920	-19.247748890
	41	2	-4.078000000	-18.601621365	-18.996428206
	42	2	-2.039000000	-20.163585984	-17.685784270
	43	2	-2.039000000	-19.912265301	-20.558392826
	44	2	0.000000000	-21.474229920	-19.247748890
	45	2	0.000000000	-18.601621365	-18.996428206
	46	2	2.039000000	-20.163585984	-17.685784270
	47	2	2.039000000	-19.912265301	-20.558392826
	48	2	4.078000000	-21.474229920	-19.247748890
	49	1	4.078000000	-18.601621365	-18.996428206
	50	2	6.117000000	-20.163585984	-17.685784270
	51	2	6.117000000	-19.912265301	-20.558392826
	52	2	8.157000000	-21.474229920	-19.247748890
	53	2	8.157000000	-18.601621365	-18.996428206
	54	2	10.196000000	-20.163585984	-17.685784270
	55	2	12.235000000	-18.601621365	-18.996428206
	56	2	-12.235000000	-15.477692126	-21.617716079
	57	2	-10.196000000	-17.039656745	-20.307072143
	58	2	-8.157000000	-18.350300681	-21.869036762
	59	2	-8.157000000	-15.477692126	-21.617716079
	60	2	-6.117000000	-17.039656745	-20.307072143
	61	2	-6.117000000	-16.788336062	-23.179680698
	62	2	-4.078000000	-18.350300681	-21.869036762
	63	2	-4.078000000	-15.477692126	-21.617716079
	64	2	-2.039000000	-17.039656745	-20.307072143
	65	1	-2.039000000	-16.788336062	-23.179680698
	66	2	0.000000000	-18.350300681	-21.869036762
	67	2	0.000000000	-15.477692126	-21.617716079
	68	2	2.039000000	-17.039656745	-20.307072143
	69	2	2.039000000	-16.788336062	-23.179680698
	70	2	4.078000000	-18.350300681	-21.869036762
	71	2	4.078000000	-15.477692126	-21.617716079
	72	2	6.117000000	-17.039656745	-20.307072143
	73	2	6.117000000	-16.788336062	-23.179680698
	74	2	8.157000000	-18.350300681	-21.869036762
	75	2	8.157000000	-15.477692126	-21.617716079
	76	2	10.196000000	-17.039656745	-20.307072143
	77	2	12.235000000	-15.477692126	-21.617716079
	78	2	-12.235000000	-12.353762887	-24.239003951
	79	2	-10.196000000	-13.915727506	-22.928360015
	80	2	-8.157000000	-15.226371442	-24.490324634
	81	2	-8.157000000	-12.353762887	-24.239003951
	82	2	-6.117000000	-13.915727506	-22.928360015
	83	2	-6.117000000	-13.664406823	-25.800968571
	84	2	-4.078000000	-15.226371442	-24.490324634
	85	2	-4.078000000	-12.353762887	-24.239003951
	86	2	-2.039000000	-13.915727506	-22.928360015
	87	2	-2.039000000	-13.664406823	-25.800968571
	88	2	0.000000000	-15.226371442	-24.490324634
	89	2	0.000000000	-12.353762887	-24.239003951
	90	2	2.039000000	-13.915727506	-22.928360015
	91	2	2.039000000	-13.664406823	-25.800968571
	92	2	4.078000000	-15.226371442	-24.490324634
	93	2	4.078000000	-12.353762887	-24.239003951
	94	2	6.117000000	-13.915727506	-22.928360015
	95	2	6.117000000	-13.664406823	-25.800968571
	96	2	8.157000000	-15.226371442	-24.490324634
	97	1	8.157000000	-12.353762887	-24.239003951
	98	2	10.196000000	-13.915727506	-22.928360015
	99	2	12.235000000	-12.353762887	-24.239003951
	100	2	-10.196000000	-10.791032223	-25.550290675
	101	2	-8.157000000	-9.229067603	-26.860934611
	102	2	-6.117000000	-10.791032223	-25.550290675
	103	2	-4.078000000	-12.101676159	-27.112255294
	104	2	-4.078000000	-9.229067603	-26.860934611
	105	2	-2.039000000	-10.791032223	-25.550290675
	106	2	0.000000000	-12.101676159	-27.112255294
	107	2	0.000000000	-9.229067603	-26.860934611
	108	2	2.039000000	-10.791032223	-25.550290675
	109	2	4.078000000	-12.101676159	-27.112255294
	110	2	4.078000000	-9.229067603	-26.860934611
	111	2	6.117000000	-10.791032223	-25.550290675
	112	2	8.157000000	-9.229067603	-26.860934611
	113	2	10.196000000	-10.791032223	-25.550290675
	114	2	-6.117000000	-7.667102984	-28.171578547
	115	2	-2.039000000	-7.667102984	-28.171578547
	116	2	2.039000000	-7.667102984	-28.171578547
	117	2	6.117000000	-7.667102984	-28.171578547
	118	2	-4.078000000	-28.476816493	-5.386704691
	119	2	0.000000000	-28.476816493	-5.386704691
	120	2	4.078000000	-28.476816493	-5.386704691
	121	2	-12.235000000	-25.352887254	-8.007992563
	122	2	-10.196000000	-26.914851873	-6.697348627
	123	2	-8.157000000	-25.352887254	-8.007992563
	124	2	-6.117000000	-26.914851873	-6.697348627
	125	2	-6.117000000	-26.663531190	-9.569957182
	126	2	-4.078000000	-28.225495810	-8.259313246
	127	1	-4.078000000	-25.352887254	-8.007992563
	128	2	-2.039000000	-26.914851873	-6.697348627
	129	1	-2.039000000	-26.663531190	-9.569957182
	130	2	0.000000000	-28.225495810	-8.259313246
	131	2	0.000000000	-25.352887254	-8.007992563
	132	2	2.039000000	-26.914851873	-6.697348627
	133	2	2.039000000	-26.663531190	-9.569957182
	134	2	4.078000000	-28.225495810	-8.259313246
	135	2	4.078000000	-25.352887254	-8.007992563
	136	1	6.117000000	-26.914851873	-6.697348627
	137	2	6.117000000	-26.663531190	-9.569957182
	138	2	8.157000000	-25.352887254	-8.007992563
	139	2	10.196000000	-26.914851873	-6.697348627
	140	2	12.235000000	-25.352887254	-8.007992563
	141	2	-16.313000000	-22.228958015	-10.629280435
	142	2	-14.274000000	-23.790922634	-9.318636499
	143	2	-12.235000000	-25.101566571	-10.880601119
	144	2	-12.235000000	-22.228958015	-10.629280435
	145	2	-10.196000000	-23.790922634	-9.318636499
	146	2	-10.196000000	-23.539601951	-12.191245055
	147	2	-8.157000000	-25.101566571	-10.880601119
	148	2	-8.157000000	-22.228958015	-10.629280435
	149	2	-6.117000000	-23.790922634	-9.318636499
	150	2	-6.117000000	-23.539601951	-12.191245055
	151	2	-4.078000000	-25.101566571	-10.880601119
	152	2	-4.078000000	-22.228958015	-10.629280435
	153	2	-2.039000000	-23.790922634	-9.318636499
	154	2	-2.039000000	-23.539601951	-12.191245055
	155	2	0.000000000	-25.101566571	-10.880601119
	156	2	0.000000000	-22.228958015	-10.629280435
	157	2	2.039000000	-23.790922634	-9.318636499
	158	2	2.039000000	-23.539601951	-12.191245055
	159	2	4.078000000	-25.101566571	-10.880601119
	160	2	4.078000000	-22.228958015	-10.629280435
	161	2	6.117000000	-23.790922634	-9.318636499
	162	2	6.117000000	-23.539601951	-12.191245055
	163	2	8.157000000	-25.101566571	-10.880601119
	164	2	8.157000000	-22.228958015	-10.629280435
	165	2	10.196000000	-23.790922634	-9.318636499
	166	2	10.196000000	-23.539601951	-12.191245055
	167	2	12.235000000	-25.101566571	-10.880601119
	168	2	12.235000000	-22.228958015	-10.629280435
	169	2	14.274000000	-23.790922634	-9.318636499
	170	2	16.313000000	-22.228958015	-10.629280435
	171	2	-16.313000000	-19.104262731	-13.251211095
	172	2	-14.274000000	-20.666993395	-11.939924371
	173	2	-14.274000000	-20.414906668	-14.813175715
	174	2	-12.235000000	-21.977637332	-13.501888991
	175	2	-12.235000000	-19.104262731	-13.251211095
	176	2	-10.196000000	-20.666993395	-11.939924371
	177	2	-10.196000000	-20.414906668	-14.813175715
	178	2	-8.157000000	-21.977637332	-13.501888991
	179	2	-8.157000000	-19.104262731	-13.251211095
	180	2	-6.117000000	-20.666993395	-11.939924371
	181	2	-6.117000000	-20.414906668	-14.813175715
	182	2	-4.078000000	-21.977637332	-13.501888991
	183	2	-4.078000000	-19.104262731	-13.251211095
	184	2	-2.039000000	-20.666993395	-11.939924371
	185	2	-2.039000000	-20.414906668	-14.813175715
	186	2	0.000000000	-21.977637332	-13.501888991
	187	2	0.000000000	-19.104262731	-13.251211095
	188	2	2.039000000	-20.666993395	-11.939924371
	189	1	2.039000000	-20.414906668	-14.813175715
	190	2	4.078000000	-21.977637332	-13.501888991
	191	2	4.078000000	-19.104262731	-13.251211095
	192	2	6.117000000	-20.666993395	-11.939924371
	193	2	6.117000000	-20.414906668	-14.813175715
	194	2	8.157000000	-21.977637332	-13.501888991
	195	2	8.157000000	-19.104262731	-13.251211095
	196	2	10.196000000	-20.666993395	-11.939924371
	197	1	10.196000000	-20.414906668	-14.813175715
	198	2	12.235000000	-21.977637332	-13.501888991
	199	2	12.235000000	-19.104262731	-13.251211095
	200	2	14.274000000	-20.666993395	-11.939924371
	201	2	14.274000000	-20.414906668	-14.813175715
	202	2	16.313000000	-19.104262731	-13.251211095
	203	2	-18.352000000	-17.542298112	-14.561855031
	204	2	-16.313000000	-18.852942048	-16.123819651
	205	2	-16.313000000	-15.980333492	-15.872498967
	206	2	-14.274000000	-17.542298112	-14.561855031
	207	2	-14.274000000	-17.290977429	-17.434463587
	208	2	-12.235000000	-18.852942048	-16.123819651
	209	2	-12.235000000	-15.980333492	-15.872498967
	210	2	-10.196000000	-17.542298112	-14.561855031
	211	2	-10.196000000	-17.290977429	-17.434463587
	212	2	-8.157000000	-18.852942048	-16.123819651
	213	2	-8.157000000	-15.980333492	-15.872498967
	214	2	-6.117000000	-17.542298112	-14.561855031
	215	2	-6.117000000	-17.290977429	-17.434463587
	216	2	-4.078000000	-18.852942048	-16.123819651
	217	2	-4.078000000	-15.980333492	-15.872498967
	218	1	-2.039000000	-17.542298112	-14.561855031
	219	2	-2.039000000	-17.290977429	-17.434463587
	220	2	0.000000000	-18.852942048	-16.123819651
	221	2	0.000000000	-15.980333492	-15.872498967
	222	2	2.039000000	-17.542298112	-14.561855031
	223	2	2.039000000	-17.290977429	-17.434463587
	224	2	4.078000000	-18.852942048	-16.123819651
	225	1	4.078000000	-15.980333492	-15.872498967
	226	1	6.117000000	-17.542298112	-14.561855031
	227	2	6.117000000	-17.290977429	-17.434463587
	228	1	8.157000000	-18.852942048	-16.123819651
	229	2	8.157000000	-15.980333492	-15.872498967
	230	2	10.196000000	-17.542298112	-14.561855031
	231	2	10.196000000	-17.290977429	-17.434463587
	232	2	12.235000000	-18.852942048	-16.123819651
	233	2	12.235000000	-15.980333492	-15.872498967
	234	2	14.274000000	-17.542298112	-14.561855031
	235	2	14.274000000	-17.290977429	-17.434463587
	236	2	16.313000000	-18.852942048	-16.123819651
	237	2	16.313000000	-15.980333492	-15.872498967
	238	2	18.352000000	-17.542298112	-14.561855031
	239	2	-18.352000000	-14.418368873	-17.183142904
	240	2	-16.313000000	-15.729012809	-18.745107523
	241	2	-16.313000000	-12.856404253	-18.493786840
	242	2	-14.274000000	-14.418368873	-17.183142904
	243	2	-14.274000000	-14.167048190	-20.055751459
	244	2	-12.235000000	-15.729012809	-18.745107523
	245	2	-12.235000000	-12.856404253	-18.493786840
	246	1	-10.196000000	-14.418368873	-17.183142904
	247	1	-10.196000000	-14.167048190	-20.055751459
	248	2	-8.157000000	-15.729012809	-18.745107523
	249	2	-8.157000000	-12.856404253	-18.493786840
	250	1	-6.117000000	-14.418368873	-17.183142904
	251	2	-6.117000000	-14.167048190	-20.055751459
	252	2	-4.078000000	-15.729012809	-18.745107523
	253	1	-4.078000000	-12.856404253	-18.493786840
	254	1	-2.039000000	-14.418368873	-17.183142904
	255	1	-2.039000000	-14.167048190	-20.055751459
	256	2	0.000000000	-15.729012809	-18.745107523
	257	2	0.000000000	-12.856404253	-18.493786840
	258	2	2.039000000	-14.418368873	-17.183142904
	259	2	2.039000000	-14.167048190	-20.055751459
	260	2	4.078000000	-15.729012809	-18.745107523
	261	2	4.078000000	-12.856404253	-18.493786840
	262	2	6.117000000	-14.418368873	-17.183142904
	263	1	6.117000000	-14.167048190	-20.055751459
	264	2	8.157000000	-15.729012809	-18.745107523
	265	2	8.157000000	-12.856404253	-18.493786840
	266	1	10.196000000	-14.418368873	-17.183142904
	267	2	10.196000000	-14.167048190	-20.055751459
	268	2	12.235000000	-15.729012809	-18.745107523
	269	1	12.235000000	-12.856404253	-18.493786840
	270	2	14.274000000	-14.418368873	-17.183142904
	271	2	14.274000000	-14.167048190	-20.055751459
	272	2	16.313000000	-15.729012809	-18.745107523
	273	2	16.313000000	-12.856404253	-18.493786840
	274	2	18.352000000	-14.418368873	-17.183142904
	275	2	-18.352000000	-11.294439634	-19.804430776
	276	2	-16.313000000	-12.605083570	-21.366395395
	277	2	-16.313000000	-9.732475014	-21.115074712
	278	2	-14.274000000	-11.294439634	-19.804430776
	279	2	-14.274000000	-11.043118950	-22.677039332
	280	2	-12.235000000	-12.605083570	-21.366395395
	281	2	-12.235000000	-9.732475014	-21.115074712
	282	2	-10.196000000	-11.294439634	-19.804430776
	283	2	-10.196000000	-11.043118950	-22.677039332
	284	2	-8.157000000	-12.605083570	-21.366395395
	285	2	-8.157000000	-9.732475014	-21.115074712
	286	2	-6.117000000	-11.294439634	-19.804430776
	287	1	-6.117000000	-11.043118950	-22.677039332
	288	2	-4.078000000	-12.605083570	-21.366395395
	289	1	-4.078000000	-9.732475014	-21.115074712
	290	1	-2.039000000	-11.294439634	-19.804430776
	291	1	-2.039000000	-11.043118950	-22.677039332
	292	1	0.000000000	-12.605083570	-21.366395395
	293	1	0.000000000	-9.732475014	-21.115074712
	294	2	2.039000000	-11.294439634	-19.804430776
	295	1	2.039000000	-11.043118950	-22.677039332
	296	2	4.078000000	-12.605083570	-21.366395395
	297	1	4.078000000	-9.732475014	-21.115074712
	298	2	6.117000000	-11.294439634	-19.804430776
	299	2	6.117000000	-11.043118950	-22.677039332
	300	2	8.157000000	-12.605083570	-21.366395395
	301	2	8.157000000	-9.732475014	-21.115074712
	302	2	10.196000000	-11.294439634	-19.804430776
	303	2	10.196000000	-11.043118950	-22.677039332
	304	2	12.235000000	-12.605083570	-21.366395395
	305	2	12.235000000	-9.732475014	-21.115074712
	306	2	14.274000000	-11.294439634	-19.804430776
	307	2	14.274000000	-11.043118950	-22.677039332
	308	1	16.313000000	-12.605083570	-21.366395395
	309	2	16.313000000	-9.732475014	-21.115074712
	310	2	18.352000000	-11.294439634	-19.804430776
	311	2	-16.313000000	-6.607779731	-23.737005372
	312	2	-14.274000000	-8.169744350	-22.426361436
	313	2	-12.235000000	-9.480388287	-23.988326055
	314	2	-12.235000000	-6.607779731	-23.737005372
	315	2	-10.196000000	-8.169744350	-22.426361436
	316	2	-10.196000000	-7.918423667	-25.298969991
	317	2	-8.157000000	-9.480388287	-23.988326055
	318	2	-8.157000000	-6.607779731	-23.737005372
	319	1	-6.117000000	-8.169744350	-22.426361436
	320	2	-6.117000000	-7.918423667	-25.298969991
	321	2	-4.078000000	-9.480388287	-23.988326055
	322	2	-4.078000000	-6.607779731	-23.737005372
	323	2	-2.039000000	-8.169744350	-22.426361436
	324	1	-2.039000000	-7.918423667	-25.298969991
	325	2	0.000000000	-9.480388287	-23.988326055
	326	1	0.000000000	-6.607779731	-23.737005372
	327	1	2.039000000	-8.169744350	-22.426361436
	328	2	2.039000000	-7.918423667	-25.298969991
	329	1	4.078000000	-9.480388287	-23.988326055
	330	2	4.078000000	-6.607779731	-23.737005372
	331	2	6.117000000	-8.169744350	-22.426361436
	332	2	6.117000000	-7.918423667	-25.298969991
	333	1	8.157000000	-9.480388287	-23.988326055
	334	2	8.157000000	-6.607779731	-23.737005372
	335	2	10.196000000	-8.169744350	-22.426361436
	336	2	10.196000000	-7.918423667	-25.298969991
	337	2	12.235000000	-9.480388287	-23.988326055
	338	1	12.235000000	-6.607779731	-23.737005372
	339	2	14.274000000	-8.169744350	-22.426361436
	340	2	16.313000000	-6.607779731	-23.737005372
	341	2	-14.274000000	-5.045815111	-25.047649308
	342	2	-12.235000000	-6.356459047	-26.609613928
	343	2	-12.235000000	-3.483850492	-26.358293244
	344	2	-10.196000000	-5.045815111	-25.047649308
	345	1	-8.157000000	-6.356459047	-26.609613928
	346	2	-8.157000000	-3.483850492	-26.358293244
	347	1	-6.117000000	-5.045815111	-25.047649308
	348	2	-6.117000000	-4.794494428	-27.920257864
	349	2	-4.078000000	-6.356459047	-26.609613928
	350	1	-4.078000000	-3.483850492	-26.358293244
	351	2	-2.039000000	-5.045815111	-25.047649308
	352	2	-2.039000000	-4.794494428	-27.920257864
	353	2	0.000000000	-6.356459047	-26.609613928
	354	2	0.000000000	-3.483850492	-26.358293244
	355	2	2.039000000	-5.045815111	-25.047649308
	356	2	2.039000000	-4.794494428	-27.920257864
	357	2	4.078000000	-6.356459047	-26.609613928
	358	2	4.078000000	-3.483850492	-26.358293244
	359	2	6.117000000	-5.045815111	-25.047649308
	360	2	6.117000000	-4.794494428	-27.920257864
	361	2	8.157000000	-6.356459047	-26.609613928
	362	2	8.157000000	-3.483850492	-26.358293244
	363	2	10.196000000	-5.045815111	-25.047649308
	364	2	12.235000000	-6.356459047	-26.609613928
	365	2	12.235000000	-3.483850492	-26.358293244
	366	2	14.274000000	-5.045815111	-25.047649308
	367	2	-10.196000000	-1.921885872	-27.668937180
	368	2	-6.117000000	-1.921885872	-27.668937180
	369	2	-4.078000000	-3.232529808	-29.230901800
	370	2	-4.078000000	-0.359921253	-28.979581117
	371	1	-2.039000000	-1.921885872	-27.668937180
	372	2	0.000000000	-3.232529808	-29.230901800
	373	2	0.000000000	-0.359921253	-28.979581117
	374	2	2.039000000	-1.921885872	-27.668937180
	375	2	4.078000000	-3.232529808	-29.230901800
	376	2	4.078000000	-0.359921253	-28.979581117
	377	2	6.117000000	-1.921885872	-27.668937180
	378	2	10.196000000	-1.921885872	-27.668937180
	379	2	-4.078000000	-28.979581117	0.359921253
	380	2	0.000000000	-28.979581117	0.359921253
	381	2	4.078000000	-28.979581117	0.359921253
	382	2	-12.235000000	-25.854885833	-2.262009407
	383	2	-10.196000000	-27.416850453	-0.951365471
	384	2	-10.196000000	-27.165529769	-3.823974027
	385	2	-8.157000000	-28.727494389	-2.513330091
	386	2	-8.157000000	-25.854885833	-2.262009407
	387	2	-6.117000000	-27.416850453	-0.951365471
	388	1	-6.117000000	-27.165529769	-3.823974027
	389	2	-4.078000000	-28.727494389	-2.513330091
	390	2	-4.078000000	-25.854885833	-2.262009407
	391	2	-2.039000000	-27.416850453	-0.951365471
	392	2	-2.039000000	-27.165529769	-3.823974027
	393	2	0.000000000	-28.727494389	-2.513330091
	394	2	0.000000000	-25.854885833	-2.262009407
	395	2	2.039000000	-27.416850453	-0.951365471
	396	2	2.039000000	-27.165529769	-3.823974027
	397	2	4.078000000	-28.727494389	-2.513330091
	398	2	4.078000000	-25.854885833	-2.262009407
	399	2	6.117000000	-27.416850453	-0.951365471
	400	2	6.117000000	-27.165529769	-3.823974027
	401	2	8.157000000	-28.727494389	-2.513330091
	402	2	8.157000000	-25.854885833	-2.262009407
	403	2	10.196000000	-27.416850453	-0.951365471
	404	2	10.196000000	-27.165529769	-3.823974027
	405	2	12.235000000	-25.854885833	-2.262009407
	406	1	-16.313000000	-22.730956594	-4.883297279
	407	2	-14.274000000	-24.292921214	-3.572653343
	408	2	-14.274000000	-24.041600530	-6.445261899
	409	1	-12.235000000	-25.603565150	-5.134617963
	410	2	-12.235000000	-22.730956594	-4.883297279
	411	2	-10.196000000	-24.292921214	-3.572653343
	412	2	-10.196000000	-24.041600530	-6.445261899
	413	2	-8.157000000	-25.603565150	-5.134617963
	414	2	-8.157000000	-22.730956594	-4.883297279
	415	2	-6.117000000	-24.292921214	-3.572653343
	416	1	-6.117000000	-24.041600530	-6.445261899
	417	1	-4.078000000	-25.603565150	-5.134617963
	418	2	-4.078000000	-22.730956594	-4.883297279
	419	2	-2.039000000	-24.292921214	-3.572653343
	420	2	-2.039000000	-24.041600530	-6.445261899
	421	1	0.000000000	-25.603565150	-5.134617963
	422	2	0.000000000	-22.730956594	-4.883297279
	423	1	2.039000000	-24.292921214	-3.572653343
	424	1	2.039000000	-24.041600530	-6.445261899
	425	2	4.078000000	-25.603565150	-5.134617963
	426	2	4.078000000	-22.730956594	-4.883297279
	427	2	6.117000000	-24.292921214	-3.572653343
	428	1	6.117000000	-24.041600530	-6.445261899
	429	2	8.157000000	-25.603565150	-5.134617963
	430	1	8.157000000	-22.730956594	-4.883297279
	431	2	10.196000000	-24.292921214	-3.572653343
	432	2	10.196000000	-24.041600530	-6.445261899
	433	2	12.235000000	-25.603565150	-5.134617963
	434	2	12.235000000	-22.730956594	-4.883297279
	435	2	14.274000000	-24.292921214	-3.572653343
	436	2	14.274000000	-24.041600530	-6.445261899
	437	2	16.313000000	-22.730956594	-4.883297279
	438	2	-20.391000000	-19.607027355	-7.504585152
	439	2	-18.352000000	-21.168991975	-6.193941216
	440	2	-18.352000000	-20.917671291	-9.066549771
	441	2	-16.313000000	-22.479635911	-7.755905835
	442	2	-16.313000000	-19.607027355	-7.504585152
	443	2	-14.274000000	-21.168991975	-6.193941216
	444	1	-14.274000000	-20.917671291	-9.066549771
	445	2	-12.235000000	-22.479635911	-7.755905835
	446	1	-12.235000000	-19.607027355	-7.504585152
	447	1	-10.196000000	-21.168991975	-6.193941216
	448	2	-10.196000000	-20.917671291	-9.066549771
	449	1	-8.157000000	-22.479635911	-7.755905835
	450	2	-8.157000000	-19.607027355	-7.504585152
	451	2	-6.117000000	-21.168991975	-6.193941216
	452	2	-6.117000000	-20.917671291	-9.066549771
	453	2	-4.078000000	-22.479635911	-7.755905835
	454	2	-4.078000000	-19.607027355	-7.504585152
	455	1	-2.039000000	-21.168991975	-6.193941216
	456	2	-2.039000000	-20.917671291	-9.066549771
	457	2	0.000000000	-22.479635911	-7.755905835
	458	1	0.000000000	-19.607027355	-7.504585152
	459	1	2.039000000	-21.168991975	-6.193941216
	460	1	2.039000000	-20.917671291	-9.066549771
	461	2	4.078000000	-22.479635911	-7.755905835
	462	2	4.078000000	-19.607027355	-7.504585152
	463	2	6.117000000	-21.168991975	-6.193941216
	464	1	6.117000000	-20.917671291	-9.066549771
	465	2	8.157000000	-22.479635911	-7.755905835
	466	1	8.157000000	-19.607027355	-7.504585152
	467	2	10.196000000	-21.168991975	-6.193941216
	468	1	10.196000000	-20.917671291	-9.066549771
	469	2	12.235000000	-22.479635911	-7.755905835
	470	2	12.235000000	-19.607027355	-7.504585152
	471	2	14.274000000	-21.168991975	-6.193941216
	472	2	14.274000000	-20.917671291	-9.066549771
	473	2	16.313000000	-22.479635911	-7.755905835
	474	2	16.313000000	-19.607027355	-7.504585152
	475	2	18.352000000	-21.168991975	-6.193941216
	476	2	18.352000000	-20.917671291	-9.066549771
	477	2	20.391000000	-19.607027355	-7.504585152
	478	2	-20.391000000	-19.355706672	-10.377193707
	479	2	-20.391000000	-16.482332072	-10.126515812
	480	2	-18.352000000	-18.045062735	-8.815229088
	481	2	-18.352000000	-17.792976008	-11.688480431
	482	2	-16.313000000	-19.355706672	-10.377193707
	483	2	-16.313000000	-16.482332072	-10.126515812
	484	2	-14.274000000	-18.045062735	-8.815229088
	485	2	-14.274000000	-17.792976008	-11.688480431
	486	2	-12.235000000	-19.355706672	-10.377193707
	487	2	-12.235000000	-16.482332072	-10.126515812
	488	2	-10.196000000	-18.045062735	-8.815229088
	489	1	-10.196000000	-17.792976008	-11.688480431
	490	2	-8.157000000	-19.355706672	-10.377193707
	491	2	-8.157000000	-16.482332072	-10.126515812
	492	1	-6.117000000	-18.045062735	-8.815229088
	493	1	-6.117000000	-17.792976008	-11.688480431
	494	1	-4.078000000	-19.355706672	-10.377193707
	495	1	-4.078000000	-16.482332072	-10.126515812
	496	1	-2.039000000	-18.045062735	-8.815229088
	497	1	-2.039000000	-17.792976008	-11.688480431
	498	1	0.000000000	-19.355706672	-10.377193707
	499	2	0.000000000	-16.482332072	-10.126515812
	500	2	2.039000000	-18.045062735	-8.815229088
	501	2	2.039000000	-17.792976008	-11.688480431
	502	1	4.078000000	-19.355706672	-10.377193707
	503	1	4.078000000	-16.482332072	-10.126515812
	504	1	6.117000000	-18.045062735	-8.815229088
	505	1	6.117000000	-17.792976008	-11.688480431
	506	2	8.157000000	-19.355706672	-10.377193707
	507	1	8.157000000	-16.482332072	-10.126515812
	508	2	10.196000000	-18.045062735	-8.815229088
	509	1	10.196000000	-17.792976008	-11.688480431
	510	1	12.235000000	-19.355706672	-10.377193707
	511	2	12.235000000	-16.482332072	-10.126515812
	512	2	14.274000000	-18.045062735	-8.815229088
	513	2	14.274000000	-17.792976008	-11.688480431
	514	2	16.313000000	-19.355706672	-10.377193707
	515	2	16.313000000	-16.482332072	-10.126515812
	516	2	18.352000000	-18.045062735	-8.815229088
	517	2	18.352000000	-17.792976008	-11.688480431
	518	2	20.391000000	-19.355706672	-10.377193707
	519	2	20.391000000	-16.482332072	-10.126515812
	520	2	-22.431000000	-14.920367452	-11.437159748
	521	2	-20.391000000	-16.231011388	-12.999124367
	522	2	-20.391000000	-13.358402832	-12.747803684
	523	2	-18.352000000	-14.920367452	-11.437159748
	524	2	-18.352000000	-14.669046769	-14.309768303
	525	2	-16.313000000	-16.231011388	-12.999124367
	526	1	-16.313000000	-13.358402832	-12.747803684
	527	2	-14.274000000	-14.920367452	-11.437159748
	528	1	-14.274000000	-14.669046769	-14.309768303
	529	2	-12.235000000	-16.231011388	-12.999124367
	530	2	-12.235000000	-13.358402832	-12.747803684
	531	2	-10.196000000	-14.920367452	-11.437159748
	532	2	-10.196000000	-14.669046769	-14.309768303
	533	1	-8.157000000	-16.231011388	-12.999124367
	534	2	-8.157000000	-13.358402832	-12.747803684
	535	2	-6.117000000	-14.920367452	-11.437159748
	536	1	-6.117000000	-14.669046769	-14.309768303
	537	2	-4.078000000	-16.231011388	-12.999124367
	538	2	-4.078000000	-13.358402832	-12.747803684
	539	2	-2.039000000	-14.920367452	-11.437159748
	540	1	-2.039000000	-14.669046769	-14.309768303
	541	1	0.000000000	-16.231011388	-12.999124367
	542	1	0.000000000	-13.358402832	-12.747803684
	543	2	2.039000000	-14.920367452	-11.437159748
	544	2	2.039000000	-14.669046769	-14.309768303
	545	1	4.078000000	-16.231011388	-12.999124367
	546	1	4.078000000	-13.358402832	-12.747803684
	547	1	6.117000000	-14.920367452	-11.437159748
	548	2	6.117000000	-14.669046769	-14.309768303
	549	1	8.157000000	-16.231011388	-12.999124367
	550	2	8.157000000	-13.358402832	-12.747803684
	551	2	10.196000000	-14.920367452	-11.437159748
	552	2	10.196000000	-14.669046769	-14.309768303
	553	2	12.235000000	-16.231011388	-12.999124367
	554	2	12.235000000	-13.358402832	-12.747803684
	555	2	14.274000000	-14.920367452	-11.437159748
	556	2	14.274000000	-14.669046769	-14.309768303
	557	2	16.313000000	-16.231011388	-12.999124367
	558	2	16.313000000	-13.358402832	-12.747803684
	559	2	18.352000000	-14.920367452	-11.437159748
	560	2	18.352000000	-14.669046769	-14.309768303
	561	2	20.391000000	-16.231011388	-12.999124367
	562	2	20.391000000	-13.358402832	-12.747803684
	563	2	22.431000000	-14.920367452	-11.437159748
	564	2	-22.431000000	-11.796438213	-14.058447620
	565	2	-20.391000000	-13.107082149	-15.620412240
	566	1	-20.391000000	-10.234473593	-15.369091556
	567	2	-18.352000000	-11.796438213	-14.058447620
	568	2	-18.352000000	-11.545117530	-16.931056176
	569	1	-16.313000000	-13.107082149	-15.620412240
	570	2	-16.313000000	-10.234473593	-15.369091556
	571	1	-14.274000000	-11.796438213	-14.058447620
	572	2	-14.274000000	-11.545117530	-16.931056176
	573	2	-12.235000000	-13.107082149	-15.620412240
	574	1	-12.235000000	-10.234473593	-15.369091556
	575	2	-10.196000000	-11.796438213	-14.058447620
	576	1	-10.196000000	-11.545117530	-16.931056176
	577	2	-8.157000000	-13.107082149	-15.620412240
	578	1	-8.157000000	-10.234473593	-15.369091556
	579	2	-6.117000000	-11.796438213	-14.058447620
	580	2	-6.117000000	-11.545117530	-16.931056176
	581	2	-4.078000000	-13.107082149	-15.620412240
	582	1	-4.078000000	-10.234473593	-15.369091556
	583	1	-2.039000000	-11.796438213	-14.058447620
	584	1	-2.039000000	-11.545117530	-16.931056176
	585	1	0.000000000	-13.107082149	-15.620412240
	586	1	0.000000000	-10.234473593	-15.369091556
	587	2	2.039000000	-11.796438213	-14.058447620
	588	1	2.039000000	-11.545117530	-16.931056176
	589	1	4.078000000	-13.107082149	-15.620412240
	590	2	4.078000000	-10.234473593	-15.369091556
	591	1	6.117000000	-11.796438213	-14.058447620
	592	2	6.117000000	-11.545117530	-16.931056176
	593	2	8.157000000	-13.107082149	-15.620412240
	594	1	8.157000000	-10.234473593	-15.369091556
	595	1	10.196000000	-11.796438213	-14.058447620
	596	1	10.196000000	-11.545117530	-16.931056176
	597	2	12.235000000	-13.107082149	-15.620412240
	598	2	12.235000000	-10.234473593	-15.369091556
	599	1	14.274000000	-11.796438213	-14.058447620
	600	2	14.274000000	-11.545117530	-16.931056176
	601	1	16.313000000	-13.107082149	-15.620412240
	602	1	16.313000000	-10.234473593	-15.369091556
	603	1	18.352000000	-11.796438213	-14.058447620
	604	1	18.352000000	-11.545117530	-16.931056176
	605	2	20.391000000	-13.107082149	-15.620412240
	606	2	20.391000000	-10.234473593	-15.369091556
	607	2	22.431000000	-11.796438213	-14.058447620
	608	2	-22.431000000	-8.672508974	-16.679735492
	609	2	-20.391000000	-9.983152910	-18.241700112
	610	2	-20.391000000	-7.110544354	-17.990379429
	611	2	-18.352000000	-8.672508974	-16.679735492
	612	1	-18.352000000	-8.421188291	-19.552344048
	613	1	-16.313000000	-9.983152910	-18.241700112
	614	2	-16.313000000	-7.110544354	-17.990379429
	615	1	-14.274000000	-8.672508974	-16.679735492
	616	2	-14.274000000	-8.421188291	-19.552344048
	617	2	-12.235000000	-9.983152910	-18.241700112
	618	1	-12.235000000	-7.110544354	-17.990379429
	619	1	-10.196000000	-8.672508974	-16.679735492
	620	2	-10.196000000	-8.421188291	-19.552344048
	621	2	-8.157000000	-9.983152910	-18.241700112
	622	2	-8.157000000	-7.110544354	-17.990379429
	623	1	-6.117000000	-8.672508974	-16.679735492
	624	2	-6.117000000	-8.421188291	-19.552344048
	625	1	-4.078000000	-9.983152910	-18.241700112
	626	2	-4.078000000	-7.110544354	-17.990379429
	627	2	-2.039000000	-8.672508974	-16.679735492
	628	1	-2.039000000	-8.421188291	-19.552344048
	629	1	0.000000000	-9.983152910	-18.241700112
	630	1	0.000000000	-7.110544354	-17.990379429