
        6699 atoms 
           2 atom types 
  -60.0000000       60.000000     xlo xhi 
  -60.0000000       60.000000     ylo yhi 
  -60.0000000       60.000000     zlo zhi 
 Atoms 

	1	1	0.000000000	0.000000000	0.000000000
	2	1	0.000000000	-1.218654182	2.613412326
	3	1	2.039000000	-1.916033254	0.697379072
	4	1	2.039000000	0.697379072	1.916033254
	5	2	-8.157000000	21.423074303	-18.647717941
	6	2	-6.117000000	20.725695231	-20.563751195
	7	2	-4.078000000	21.423074303	-18.647717941
	8	2	-2.039000000	20.725695231	-20.563751195
	9	2	0.000000000	21.423074303	-18.647717941
	10	2	2.039000000	20.725695231	-20.563751195
	11	2	4.078000000	21.423074303	-18.647717941
	12	2	6.117000000	20.725695231	-20.563751195
	13	2	8.157000000	21.423074303	-18.647717941
	14	2	-12.235000000	22.818174468	-14.814711741
	15	2	-10.196000000	22.120453375	-16.731684687
	16	2	-8.157000000	22.818174468	-14.814711741
	17	2	-6.117000000	22.120453375	-16.731684687
	18	2	-6.117000000	24.734207721	-15.512090813
	19	2	-4.078000000	24.036486629	-17.429063759
	20	2	-4.078000000	22.818174468	-14.814711741
	21	2	-2.039000000	22.120453375	-16.731684687
	22	2	-2.039000000	24.734207721	-15.512090813
	23	2	0.000000000	24.036486629	-17.429063759
	24	1	0.000000000	22.818174468	-14.814711741
	25	1	2.039000000	22.120453375	-16.731684687
	26	2	2.039000000	24.734207721	-15.512090813
	27	2	4.078000000	24.036486629	-17.429063759
	28	1	4.078000000	22.818174468	-14.814711741
	29	2	6.117000000	22.120453375	-16.731684687
	30	2	6.117000000	24.734207721	-15.512090813
	31	2	8.157000000	22.818174468	-14.814711741
	32	2	10.196000000	22.120453375	-16.731684687
	33	2	12.235000000	22.818174468	-14.814711741
	34	2	-12.235000000	24.212932612	-10.982645233
	35	2	-10.196000000	23.515553540	-12.898678487
	36	2	-8.157000000	25.431586794	-13.596057559
	37	2	-8.157000000	24.212932612	-10.982645233
	38	2	-6.117000000	23.515553540	-12.898678487
	39	2	-6.117000000	26.128965866	-11.680024305
	40	2	-4.078000000	25.431586794	-13.596057559
	41	2	-4.078000000	24.212932612	-10.982645233
	42	2	-2.039000000	23.515553540	-12.898678487
	43	2	-2.039000000	26.128965866	-11.680024305
	44	2	0.000000000	25.431586794	-13.596057559
	45	2	0.000000000	24.212932612	-10.982645233
	46	2	2.039000000	23.515553540	-12.898678487
	47	2	2.039000000	26.128965866	-11.680024305
	48	2	4.078000000	25.431586794	-13.596057559
	49	1	4.078000000	24.212932612	-10.982645233
	50	2	6.117000000	23.515553540	-12.898678487
	51	2	6.117000000	26.128965866	-11.680024305
	52	2	8.157000000	25.431586794	-13.596057559
	53	2	8.157000000	24.212932612	-10.982645233
	54	2	10.196000000	23.515553540	-12.898678487
	55	2	12.235000000	24.212932612	-10.982645233
	56	2	-12.235000000	25.607690757	-7.150578726
	57	2	-10.196000000	24.910311684	-9.066611979
	58	2	-8.157000000	26.826344938	-9.763991052
	59	2	-8.157000000	25.607690757	-7.150578726
	60	2	-6.117000000	24.910311684	-9.066611979
	61	2	-6.117000000	27.523724010	-7.847957798
	62	2	-4.078000000	26.826344938	-9.763991052
	63	2	-4.078000000	25.607690757	-7.150578726
	64	2	-2.039000000	24.910311684	-9.066611979
	65	1	-2.039000000	27.523724010	-7.847957798
	66	2	0.000000000	26.826344938	-9.763991052
	67	2	0.000000000	25.607690757	-7.150578726
	68	2	2.039000000	24.910311684	-9.066611979
	69	2	2.039000000	27.523724010	-7.847957798
	70	2	4.078000000	26.826344938	-9.763991052
	71	2	4.078000000	25.607690757	-7.150578726
	72	2	6.117000000	24.910311684	-9.066611979
	73	2	6.117000000	27.523724010	-7.847957798
	74	2	8.157000000	26.826344938	-9.763991052
	75	2	8.157000000	25.607690757	-7.150578726
	76	2	10.196000000	24.910311684	-9.066611979
	77	2	12.235000000	25.607690757	-7.150578726
	78	2	-12.235000000	27.002448901	-3.318512218
	79	2	-10.196000000	26.305069829	-5.234545472
	80	2	-8.157000000	28.221103083	-5.931924544
	81	2	-8.157000000	27.002448901	-3.318512218
	82	2	-6.117000000	26.305069829	-5.234545472
	83	2	-6.117000000	28.918482155	-4.015891290
	84	2	-4.078000000	28.221103083	-5.931924544
	85	2	-4.078000000	27.002448901	-3.318512218
	86	2	-2.039000000	26.305069829	-5.234545472
	87	2	-2.039000000	28.918482155	-4.015891290
	88	2	0.000000000	28.221103083	-5.931924544
	89	2	0.000000000	27.002448901	-3.318512218
	90	2	2.039000000	26.305069829	-5.234545472
	91	2	2.039000000	28.918482155	-4.015891290
	92	2	4.078000000	28.221103083	-5.931924544
	93	2	4.078000000	27.002448901	-3.318512218
	94	2	6.117000000	26.305069829	-5.234545472
	95	2	6.117000000	28.918482155	-4.015891290
	96	2	8.157000000	28.221103083	-5.931924544
	97	1	8.157000000	27.002448901	-3.318512218
	98	2	10.196000000	26.305069829	-5.234545472
	99	2	12.235000000	27.002448901	-3.318512218
	100	2	-10.196000000	27.700169994	-1.401539272
	101	2	-8.157000000	28.397549066	0.514493982
	102	2	-6.117000000	27.700169994	-1.401539272
	103	2	-4.078000000	29.616203247	-2.098918344
	104	2	-4.078000000	28.397549066	0.514493982
	105	2	-2.039000000	27.700169994	-1.401539272
	106	2	0.000000000	29.616203247	-2.098918344
	107	2	0.000000000	28.397549066	0.514493982
	108	2	2.039000000	27.700169994	-1.401539272
	109	2	4.078000000	29.616203247	-2.098918344
	110	2	4.078000000	28.397549066	0.514493982
	111	2	6.117000000	27.700169994	-1.401539272
	112	2	8.157000000	28.397549066	0.514493982
	113	2	10.196000000	27.700169994	-1.401539272
	114	2	-6.117000000	29.094928138	2.430527236
	115	2	-2.039000000	29.094928138	2.430527236
	116	2	2.039000000	29.094928138	2.430527236
	117	2	6.117000000	29.094928138	2.430527236
	118	2	-4.078000000	14.801491507	-24.917092812
	119	2	0.000000000	14.801491507	-24.917092812
	120	2	4.078000000	14.801491507	-24.917092812
	121	2	-12.235000000	16.196249651	-21.085026304
	122	2	-10.196000000	15.498870579	-23.001059558
	123	2	-8.157000000	16.196249651	-21.085026304
	124	2	-6.117000000	15.498870579	-23.001059558
	125	2	-6.117000000	18.112282905	-21.782405376
	126	2	-4.078000000	17.414903833	-23.698438630
	127	1	-4.078000000	16.196249651	-21.085026304
	128	2	-2.039000000	15.498870579	-23.001059558
	129	1	-2.039000000	18.112282905	-21.782405376
	130	2	0.000000000	17.414903833	-23.698438630
	131	2	0.000000000	16.196249651	-21.085026304
	132	2	2.039000000	15.498870579	-23.001059558
	133	2	2.039000000	18.112282905	-21.782405376
	134	2	4.078000000	17.414903833	-23.698438630
	135	2	4.078000000	16.196249651	-21.085026304
	136	1	6.117000000	15.498870579	-23.001059558
	137	2	6.117000000	18.112282905	-21.782405376
	138	2	8.157000000	16.196249651	-21.085026304
	139	2	10.196000000	15.498870579	-23.001059558
	140	2	12.235000000	16.196249651	-21.085026304
	141	2	-16.313000000	17.591007796	-17.252959796
	142	2	-14.274000000	16.893628723	-19.168993050
	143	2	-12.235000000	18.809661977	-19.866372122
	144	2	-12.235000000	17.591007796	-17.252959796
	145	2	-10.196000000	16.893628723	-19.168993050
	146	2	-10.196000000	19.507041049	-17.950338869
	147	2	-8.157000000	18.809661977	-19.866372122
	148	2	-8.157000000	17.591007796	-17.252959796
	149	2	-6.117000000	16.893628723	-19.168993050
	150	2	-6.117000000	19.507041049	-17.950338869
	151	2	-4.078000000	18.809661977	-19.866372122
	152	2	-4.078000000	17.591007796	-17.252959796
	153	2	-2.039000000	16.893628723	-19.168993050
	154	2	-2.039000000	19.507041049	-17.950338869
	155	2	0.000000000	18.809661977	-19.866372122
	156	2	0.000000000	17.591007796	-17.252959796
	157	2	2.039000000	16.893628723	-19.168993050
	158	2	2.039000000	19.507041049	-17.950338869
	159	2	4.078000000	18.809661977	-19.866372122
	160	2	4.078000000	17.591007796	-17.252959796
	161	2	6.117000000	16.893628723	-19.168993050
	162	2	6.117000000	19.507041049	-17.950338869
	163	2	8.157000000	18.809661977	-19.866372122
	164	2	8.157000000	17.591007796	-17.252959796
	165	2	10.196000000	16.893628723	-19.168993050
	166	2	10.196000000	19.507041049	-17.950338869
	167	2	12.235000000	18.809661977	-19.866372122
	168	2	12.235000000	17.591007796	-17.252959796
	169	2	14.274000000	16.893628723	-19.168993050
	170	2	16.313000000	17.591007796	-17.252959796
	171	2	-16.313000000	18.986107960	-13.419953596
	172	2	-14.274000000	18.288386868	-15.336926543
	173	2	-14.274000000	20.902141214	-14.117332669
	174	2	-12.235000000	20.204420122	-16.034305615
	175	2	-12.235000000	18.986107960	-13.419953596
	176	2	-10.196000000	18.288386868	-15.336926543
	177	2	-10.196000000	20.902141214	-14.117332669
	178	2	-8.157000000	20.204420122	-16.034305615
	179	2	-8.157000000	18.986107960	-13.419953596
	180	2	-6.117000000	18.288386868	-15.336926543
	181	2	-6.117000000	20.902141214	-14.117332669
	182	2	-4.078000000	20.204420122	-16.034305615
	183	2	-4.078000000	18.986107960	-13.419953596
	184	2	-2.039000000	18.288386868	-15.336926543
	185	2	-2.039000000	20.902141214	-14.117332669
	186	2	0.000000000	20.204420122	-16.034305615
	187	2	0.000000000	18.986107960	-13.419953596
	188	2	2.039000000	18.288386868	-15.336926543
	189	1	2.039000000	20.902141214	-14.117332669
	190	2	4.078000000	20.204420122	-16.034305615
	191	2	4.078000000	18.986107960	-13.419953596
	192	2	6.117000000	18.288386868	-15.336926543
	193	2	6.117000000	20.902141214	-14.117332669
	194	2	8.157000000	20.204420122	-16.034305615
	195	2	8.157000000	18.986107960	-13.419953596
	196	2	10.196000000	18.288386868	-15.336926543
	197	1	10.196000000	20.902141214	-14.117332669
	198	2	12.235000000	20.204420122	-16.034305615
	199	2	12.235000000	18.986107960	-13.419953596
	200	2	14.274000000	18.288386868	-15.336926543
	201	2	14.274000000	20.902141214	-14.117332669
	202	2	16.313000000	18.986107960	-13.419953596
	203	2	-18.352000000	19.683487032	-11.503920343
	204	2	-16.313000000	21.599520286	-12.201299415
	205	2	-16.313000000	20.380866105	-9.587887089
	206	2	-14.274000000	19.683487032	-11.503920343
	207	2	-14.274000000	22.296899358	-10.285266161
	208	2	-12.235000000	21.599520286	-12.201299415
	209	2	-12.235000000	20.380866105	-9.587887089
	210	2	-10.196000000	19.683487032	-11.503920343
	211	2	-10.196000000	22.296899358	-10.285266161
	212	2	-8.157000000	21.599520286	-12.201299415
	213	2	-8.157000000	20.380866105	-9.587887089
	214	2	-6.117000000	19.683487032	-11.503920343
	215	2	-6.117000000	22.296899358	-10.285266161
	216	2	-4.078000000	21.599520286	-12.201299415
	217	2	-4.078000000	20.380866105	-9.587887089
	218	1	-2.039000000	19.683487032	-11.503920343
	219	2	-2.039000000	22.296899358	-10.285266161
	220	2	0.000000000	21.599520286	-12.201299415
	221	2	0.000000000	20.380866105	-9.587887089
	222	2	2.039000000	19.683487032	-11.503920343
	223	2	2.039000000	22.296899358	-10.285266161
	224	2	4.078000000	21.599520286	-12.201299415
	225	1	4.078000000	20.380866105	-9.587887089
	226	1	6.117000000	19.683487032	-11.503920343
	227	2	6.117000000	22.296899358	-10.285266161
	228	1	8.157000000	21.599520286	-12.201299415
	229	2	8.157000000	20.380866105	-9.587887089
	230	2	10.196000000	19.683487032	-11.503920343
	231	2	10.196000000	22.296899358	-10.285266161
	232	2	12.235000000	21.599520286	-12.201299415
	233	2	12.235000000	20.380866105	-9.587887089
	234	2	14.274000000	19.683487032	-11.503920343
	235	2	14.274000000	22.296899358	-10.285266161
	236	2	16.313000000	21.599520286	-12.201299415
	237	2	16.313000000	20.380866105	-9.587887089
	238	2	18.352000000	19.683487032	-11.503920343
	239	2	-18.352000000	21.078245177	-7.671853835
	240	2	-16.313000000	22.994278431	-8.369232907
	241	2	-16.313000000	21.775624249	-5.755820581
	242	2	-14.274000000	21.078245177	-7.671853835
	243	2	-14.274000000	23.691657503	-6.453199653
	244	2	-12.235000000	22.994278431	-8.369232907
	245	2	-12.235000000	21.775624249	-5.755820581
	246	1	-10.196000000	21.078245177	-7.671853835
	247	1	-10.196000000	23.691657503	-6.453199653
	248	2	-8.157000000	22.994278431	-8.369232907
	249	2	-8.157000000	21.775624249	-5.755820581
	250	1	-6.117000000	21.078245177	-7.671853835
	251	2	-6.117000000	23.691657503	-6.453199653
	252	2	-4.078000000	22.994278431	-8.369232907
	253	1	-4.078000000	21.775624249	-5.755820581
	254	1	-2.039000000	21.078245177	-7.671853835
	255	1	-2.039000000	23.691657503	-6.453199653
	256	2	0.000000000	22.994278431	-8.369232907
	257	2	0.000000000	21.775624249	-5.755820581
	258	2	2.039000000	21.078245177	-7.671853835
	259	2	2.039000000	23.691657503	-6.453199653
	260	2	4.078000000	22.994278431	-8.369232907
	261	2	4.078000000	21.775624249	-5.755820581
	262	2	6.117000000	21.078245177	-7.671853835
	263	1	6.117000000	23.691657503	-6.453199653
	264	2	8.157000000	22.994278431	-8.369232907
	265	2	8.157000000	21.775624249	-5.755820581
	266	1	10.196000000	21.078245177	-7.671853835
	267	2	10.196000000	23.691657503	-6.453199653
	268	2	12.235000000	22.994278431	-8.369232907
	269	1	12.235000000	21.775624249	-5.755820581
	270	2	14.274000000	21.078245177	-7.671853835
	271	2	14.274000000	23.691657503	-6.453199653
	272	2	16.313000000	22.994278431	-8.369232907
	273	2	16.313000000	21.775624249	-5.755820581
	274	2	18.352000000	21.078245177	-7.671853835
	275	2	-18.352000000	22.473003321	-3.839787327
	276	2	-16.313000000	24.389036575	-4.537166400
	277	2	-16.313000000	23.170382394	-1.923754074
	278	2	-14.274000000	22.473003321	-3.839787327
	279	2	-14.274000000	25.086415647	-2.621133146
	280	2	-12.235000000	24.389036575	-4.537166400
	281	2	-12.235000000	23.170382394	-1.923754074
	282	2	-10.196000000	22.473003321	-3.839787327
	283	2	-10.196000000	25.086415647	-2.621133146
	284	2	-8.157000000	24.389036575	-4.537166400
	285	2	-8.157000000	23.170382394	-1.923754074
	286	2	-6.117000000	22.473003321	-3.839787327
	287	1	-6.117000000	25.086415647	-2.621133146
	288	2	-4.078000000	24.389036575	-4.537166400
	289	1	-4.078000000	23.170382394	-1.923754074
	290	1	-2.039000000	22.473003321	-3.839787327
	291	1	-2.039000000	25.086415647	-2.621133146
	292	1	0.000000000	24.389036575	-4.537166400
	293	1	0.000000000	23.170382394	-1.923754074
	294	2	2.039000000	22.473003321	-3.839787327
	295	1	2.039000000	25.086415647	-2.621133146
	296	2	4.078000000	24.389036575	-4.537166400
	297	1	4.078000000	23.170382394	-1.923754074
	298	2	6.117000000	22.473003321	-3.839787327
	299	2	6.117000000	25.086415647	-2.621133146
	300	2	8.157000000	24.389036575	-4.537166400
	301	2	8.157000000	23.170382394	-1.923754074
	302	2	10.196000000	22.473003321	-3.839787327
	303	2	10.196000000	25.086415647	-2.621133146
	304	2	12.235000000	24.389036575	-4.537166400
	305	2	12.235000000	23.170382394	-1.923754074
	306	2	14.274000000	22.473003321	-3.839787327
	307	2	14.274000000	25.086415647	-2.621133146
	308	1	16.313000000	24.389036575	-4.537166400
	309	2	16.313000000	23.170382394	-1.923754074
	310	2	18.352000000	22.473003321	-3.839787327
	311	2	-16.313000000	24.565482558	1.909252127
	312	2	-14.274000000	23.868103486	-0.006781127
	313	2	-12.235000000	25.784136740	-0.704160199
	314	2	-12.235000000	24.565482558	1.909252127
	315	2	-10.196000000	23.868103486	-0.006781127
	316	2	-10.196000000	26.481515812	1.211873054
	317	2	-8.157000000	25.784136740	-0.704160199
	318	2	-8.157000000	24.565482558	1.909252127
	319	1	-6.117000000	23.868103486	-0.006781127
	320	2	-6.117000000	26.481515812	1.211873054
	321	2	-4.078000000	25.784136740	-0.704160199
	322	2	-4.078000000	24.565482558	1.909252127
	323	2	-2.039000000	23.868103486	-0.006781127
	324	1	-2.039000000	26.481515812	1.211873054
	325	2	0.000000000	25.784136740	-0.704160199
	326	1	0.000000000	24.565482558	1.909252127
	327	1	2.039000000	23.868103486	-0.006781127
	328	2	2.039000000	26.481515812	1.211873054
	329	1	4.078000000	25.784136740	-0.704160199
	330	2	4.078000000	24.565482558	1.909252127
	331	2	6.117000000	23.868103486	-0.006781127
	332	2	6.117000000	26.481515812	1.211873054
	333	1	8.157000000	25.784136740	-0.704160199
	334	2	8.157000000	24.565482558	1.909252127
	335	2	10.196000000	23.868103486	-0.006781127
	336	2	10.196000000	26.481515812	1.211873054
	337	2	12.235000000	25.784136740	-0.704160199
	338	1	12.235000000	24.565482558	1.909252127
	339	2	14.274000000	23.868103486	-0.006781127
	340	2	16.313000000	24.565482558	1.909252127
	341	2	-14.274000000	25.262861630	3.825285380
	342	2	-12.235000000	27.178894884	3.127906308
	343	2	-12.235000000	25.960240703	5.741318634
	344	2	-10.196000000	25.262861630	3.825285380
	345	1	-8.157000000	27.178894884	3.127906308
	346	2	-8.157000000	25.960240703	5.741318634
	347	1	-6.117000000	25.262861630	3.825285380
	348	2	-6.117000000	27.876273956	5.043939562
	349	2	-4.078000000	27.178894884	3.127906308
	350	1	-4.078000000	25.960240703	5.741318634
	351	2	-2.039000000	25.262861630	3.825285380
	352	2	-2.039000000	27.876273956	5.043939562
	353	2	0.000000000	27.178894884	3.127906308
	354	2	0.000000000	25.960240703	5.741318634
	355	2	2.039000000	25.262861630	3.825285380
	356	2	2.039000000	27.876273956	5.043939562
	357	2	4.078000000	27.178894884	3.127906308
	358	2	4.078000000	25.960240703	5.741318634
	359	2	6.117000000	25.262861630	3.825285380
	360	2	6.117000000	27.876273956	5.043939562
	361	2	8.157000000	27.178894884	3.127906308
	362	2	8.157000000	25.960240703	5.741318634
	363	2	10.196000000	25.262861630	3.825285380
	364	2	12.235000000	27.178894884	3.127906308
	365	2	12.235000000	25.960240703	5.741318634
	366	2	14.274000000	25.262861630	3.825285380
	367	2	-10.196000000	26.657619775	7.657351888
	368	2	-6.117000000	26.657619775	7.657351888
	369	2	-4.078000000	28.573653029	6.959972816
	370	2	-4.078000000	27.354998847	9.573385142
	371	1	-2.039000000	26.657619775	7.657351888
	372	2	0.000000000	28.573653029	6.959972816
	373	2	0.000000000	27.354998847	9.573385142
	374	2	2.039000000	26.657619775	7.657351888
	375	2	4.078000000	28.573653029	6.959972816
	376	2	4.078000000	27.354998847	9.573385142
	377	2	6.117000000	26.657619775	7.657351888
	378	2	10.196000000	26.657619775	7.657351888
	379	2	-4.078000000	9.573385142	-27.354998847
	380	2	0.000000000	9.573385142	-27.354998847
	381	2	4.078000000	9.573385142	-27.354998847
	382	2	-12.235000000	10.968485306	-23.521992647
	383	2	-10.196000000	10.271106234	-25.438025901
	384	2	-10.196000000	12.884518560	-24.219371719
	385	2	-8.157000000	12.187139488	-26.135404973
	386	2	-8.157000000	10.968485306	-23.521992647
	387	2	-6.117000000	10.271106234	-25.438025901
	388	1	-6.117000000	12.884518560	-24.219371719
	389	2	-4.078000000	12.187139488	-26.135404973
	390	2	-4.078000000	10.968485306	-23.521992647
	391	2	-2.039000000	10.271106234	-25.438025901
	392	2	-2.039000000	12.884518560	-24.219371719
	393	2	0.000000000	12.187139488	-26.135404973
	394	2	0.000000000	10.968485306	-23.521992647
	395	2	2.039000000	10.271106234	-25.438025901
	396	2	2.039000000	12.884518560	-24.219371719
	397	2	4.078000000	12.187139488	-26.135404973
	398	2	4.078000000	10.968485306	-23.521992647
	399	2	6.117000000	10.271106234	-25.438025901
	400	2	6.117000000	12.884518560	-24.219371719
	401	2	8.157000000	12.187139488	-26.135404973
	402	2	8.157000000	10.968485306	-23.521992647
	403	2	10.196000000	10.271106234	-25.438025901
	404	2	10.196000000	12.884518560	-24.219371719
	405	2	12.235000000	10.968485306	-23.521992647
	406	1	-16.313000000	12.363243451	-19.689926139
	407	2	-14.274000000	11.665864379	-21.605959393
	408	2	-14.274000000	14.279276705	-20.387305212
	409	1	-12.235000000	13.581897632	-22.303338465
	410	2	-12.235000000	12.363243451	-19.689926139
	411	2	-10.196000000	11.665864379	-21.605959393
	412	2	-10.196000000	14.279276705	-20.387305212
	413	2	-8.157000000	13.581897632	-22.303338465
	414	2	-8.157000000	12.363243451	-19.689926139
	415	2	-6.117000000	11.665864379	-21.605959393
	416	1	-6.117000000	14.279276705	-20.387305212
	417	1	-4.078000000	13.581897632	-22.303338465
	418	2	-4.078000000	12.363243451	-19.689926139
	419	2	-2.039000000	11.665864379	-21.605959393
	420	2	-2.039000000	14.279276705	-20.387305212
	421	1	0.000000000	13.581897632	-22.303338465
	422	2	0.000000000	12.363243451	-19.689926139
	423	1	2.039000000	11.665864379	-21.605959393
	424	1	2.039000000	14.279276705	-20.387305212
	425	2	4.078000000	13.581897632	-22.303338465
	426	2	4.078000000	12.363243451	-19.689926139
	427	2	6.117000000	11.665864379	-21.605959393
	428	1	6.117000000	14.279276705	-20.387305212
	429	2	8.157000000	13.581897632	-22.303338465
	430	1	8.157000000	12.363243451	-19.689926139
	431	2	10.196000000	11.665864379	-21.605959393
	432	2	10.196000000	14.279276705	-20.387305212
	433	2	12.235000000	13.581897632	-22.303338465
	434	2	12.235000000	12.363243451	-19.689926139
	435	2	14.274000000	11.665864379	-21.605959393
	436	2	14.274000000	14.279276705	-20.387305212
	437	2	16.313000000	12.363243451	-19.689926139
	438	2	-20.391000000	13.758001595	-15.857859632
	439	2	-18.352000000	13.060622523	-17.773892886
	440	2	-18.352000000	15.674034849	-16.555238704
	441	2	-16.313000000	14.976655777	-18.471271958
	442	2	-16.313000000	13.758001595	-15.857859632
	443	2	-14.274000000	13.060622523	-17.773892886
	444	1	-14.274000000	15.674034849	-16.555238704
	445	2	-12.235000000	14.976655777	-18.471271958
	446	1	-12.235000000	13.758001595	-15.857859632
	447	1	-10.196000000	13.060622523	-17.773892886
	448	2	-10.196000000	15.674034849	-16.555238704
	449	1	-8.157000000	14.976655777	-18.471271958
	450	2	-8.157000000	13.758001595	-15.857859632
	451	2	-6.117000000	13.060622523	-17.773892886
	452	2	-6.117000000	15.674034849	-16.555238704
	453	2	-4.078000000	14.976655777	-18.471271958
	454	2	-4.078000000	13.758001595	-15.857859632
	455	1	-2.039000000	13.060622523	-17.773892886
	456	2	-2.039000000	15.674034849	-16.555238704
	457	2	0.000000000	14.976655777	-18.471271958
	458	1	0.000000000	13.758001595	-15.857859632
	459	1	2.039000000	13.060622523	-17.773892886
	460	1	2.039000000	15.674034849	-16.555238704
	461	2	4.078000000	14.976655777	-18.471271958
	462	2	4.078000000	13.758001595	-15.857859632
	463	2	6.117000000	13.060622523	-17.773892886
	464	1	6.117000000	15.674034849	-16.555238704
	465	2	8.157000000	14.976655777	-18.471271958
	466	1	8.157000000	13.758001595	-15.857859632
	467	2	10.196000000	13.060622523	-17.773892886
	468	1	10.196000000	15.674034849	-16.555238704
	469	2	12.235000000	14.976655777	-18.471271958
	470	2	12.235000000	13.758001595	-15.857859632
	471	2	14.274000000	13.060622523	-17.773892886
	472	2	14.274000000	15.674034849	-16.555238704
	473	2	16.313000000	14.976655777	-18.471271958
	474	2	16.313000000	13.758001595	-15.857859632
	475	2	18.352000000	13.060622523	-17.773892886
	476	2	18.352000000	15.674034849	-16.555238704
	477	2	20.391000000	13.758001595	-15.857859632
	478	2	-20.391000000	16.371413921	-14.639205450
	479	2	-20.391000000	15.153101760	-12.024853432
	480	2	-18.352000000	14.455380668	-13.941826378
	481	2	-18.352000000	17.069135014	-12.722232504
	482	2	-16.313000000	16.371413921	-14.639205450
	483	2	-16.313000000	15.153101760	-12.024853432
	484	2	-14.274000000	14.455380668	-13.941826378
	485	2	-14.274000000	17.069135014	-12.722232504
	486	2	-12.235000000	16.371413921	-14.639205450
	487	2	-12.235000000	15.153101760	-12.024853432
	488	2	-10.196000000	14.455380668	-13.941826378
	489	1	-10.196000000	17.069135014	-12.722232504
	490	2	-8.157000000	16.371413921	-14.639205450
	491	2	-8.157000000	15.153101760	-12.024853432
	492	1	-6.117000000	14.455380668	-13.941826378
	493	1	-6.117000000	17.069135014	-12.722232504
	494	1	-4.078000000	16.371413921	-14.639205450
	495	1	-4.078000000	15.153101760	-12.024853432
	496	1	-2.039000000	14.455380668	-13.941826378
	497	1	-2.039000000	17.069135014	-12.722232504
	498	1	0.000000000	16.371413921	-14.639205450
	499	2	0.000000000	15.153101760	-12.024853432
	500	2	2.039000000	14.455380668	-13.941826378
	501	2	2.039000000	17.069135014	-12.722232504
	502	1	4.078000000	16.371413921	-14.639205450
	503	1	4.078000000	15.153101760	-12.024853432
	504	1	6.117000000	14.455380668	-13.941826378
	505	1	6.117000000	17.069135014	-12.722232504
	506	2	8.157000000	16.371413921	-14.639205450
	507	1	8.157000000	15.153101760	-12.024853432
	508	2	10.196000000	14.455380668	-13.941826378
	509	1	10.196000000	17.069135014	-12.722232504
	510	1	12.235000000	16.371413921	-14.639205450
	511	2	12.235000000	15.153101760	-12.024853432
	512	2	14.274000000	14.455380668	-13.941826378
	513	2	14.274000000	17.069135014	-12.722232504
	514	2	16.313000000	16.371413921	-14.639205450
	515	2	16.313000000	15.153101760	-12.024853432
	516	2	18.352000000	14.455380668	-13.941826378
	517	2	18.352000000	17.069135014	-12.722232504
	518	2	20.391000000	16.371413921	-14.639205450
	519	2	20.391000000	15.153101760	-12.024853432
	520	2	-22.431000000	15.850480832	-10.108820178
	521	2	-20.391000000	17.766514086	-10.806199250
	522	2	-20.391000000	16.547859904	-8.192786924
	523	2	-18.352000000	15.850480832	-10.108820178
	524	2	-18.352000000	18.463893158	-8.890165996
	525	2	-16.313000000	17.766514086	-10.806199250
	526	1	-16.313000000	16.547859904	-8.192786924
	527	2	-14.274000000	15.850480832	-10.108820178
	528	1	-14.274000000	18.463893158	-8.890165996
	529	2	-12.235000000	17.766514086	-10.806199250
	530	2	-12.235000000	16.547859904	-8.192786924
	531	2	-10.196000000	15.850480832	-10.108820178
	532	2	-10.196000000	18.463893158	-8.890165996
	533	1	-8.157000000	17.766514086	-10.806199250
	534	2	-8.157000000	16.547859904	-8.192786924
	535	2	-6.117000000	15.850480832	-10.108820178
	536	1	-6.117000000	18.463893158	-8.890165996
	537	2	-4.078000000	17.766514086	-10.806199250
	538	2	-4.078000000	16.547859904	-8.192786924
	539	2	-2.039000000	15.850480832	-10.108820178
	540	1	-2.039000000	18.463893158	-8.890165996
	541	1	0.000000000	17.766514086	-10.806199250
	542	1	0.000000000	16.547859904	-8.192786924
	543	2	2.039000000	15.850480832	-10.108820178
	544	2	2.039000000	18.463893158	-8.890165996
	545	1	4.078000000	17.766514086	-10.806199250
	546	1	4.078000000	16.547859904	-8.192786924
	547	1	6.117000000	15.850480832	-10.108820178
	548	2	6.117000000	18.463893158	-8.890165996
	549	1	8.157000000	17.766514086	-10.806199250
	550	2	8.157000000	16.547859904	-8.192786924
	551	2	10.196000000	15.850480832	-10.108820178
	552	2	10.196000000	18.463893158	-8.890165996
	553	2	12.235000000	17.766514086	-10.806199250
	554	2	12.235000000	16.547859904	-8.192786924
	555	2	14.274000000	15.850480832	-10.108820178
	556	2	14.274000000	18.463893158	-8.890165996
	557	2	16.313000000	17.766514086	-10.806199250
	558	2	16.313000000	16.547859904	-8.192786924
	559	2	18.352000000	15.850480832	-10.108820178
	560	2	18.352000000	18.463893158	-8.890165996
	561	2	20.391000000	17.766514086	-10.806199250
	562	2	20.391000000	16.547859904	-8.192786924
	563	2	22.431000000	15.850480832	-10.108820178
	564	2	-22.431000000	17.245238977	-6.276753670
	565	2	-20.391000000	19.161272230	-6.974132743
	566	1	-20.391000000	17.942618049	-4.360720417
	567	2	-18.352000000	17.245238977	-6.276753670
	568	2	-18.352000000	19.858651303	-5.058099489
	569	1	-16.313000000	19.161272230	-6.974132743
	570	2	-16.313000000	17.942618049	-4.360720417
	571	1	-14.274000000	17.245238977	-6.276753670
	572	2	-14.274000000	19.858651303	-5.058099489
	573	2	-12.235000000	19.161272230	-6.974132743
	574	1	-12.235000000	17.942618049	-4.360720417
	575	2	-10.196000000	17.245238977	-6.276753670
	576	1	-10.196000000	19.858651303	-5.058099489
	577	2	-8.157000000	19.161272230	-6.974132743
	578	1	-8.157000000	17.942618049	-4.360720417
	579	2	-6.117000000	17.245238977	-6.276753670
	580	2	-6.117000000	19.858651303	-5.058099489
	581	2	-4.078000000	19.161272230	-6.974132743
	582	1	-4.078000000	17.942618049	-4.360720417
	583	1	-2.039000000	17.245238977	-6.276753670
	584	1	-2.039000000	19.858651303	-5.058099489
	585	1	0.000000000	19.161272230	-6.974132743
	586	1	0.000000000	17.942618049	-4.360720417
	587	2	2.039000000	17.245238977	-6.276753670
	588	1	2.039000000	19.858651303	-5.058099489
	589	1	4.078000000	19.161272230	-6.974132743
	590	2	4.078000000	17.942618049	-4.360720417
	591	1	6.117000000	17.245238977	-6.276753670
	592	2	6.117000000	19.858651303	-5.058099489
	593	2	8.157000000	19.161272230	-6.974132743
	594	1	8.157000000	17.942618049	-4.360720417
	595	1	10.196000000	17.245238977	-6.276753670
	596	1	10.196000000	19.858651303	-5.058099489
	597	2	12.235000000	19.161272230	-6.974132743
	598	2	12.235000000	17.942618049	-4.360720417
	599	1	14.274000000	17.245238977	-6.276753670
	600	2	14.274000000	19.858651303	-5.058099489
	601	1	16.313000000	19.161272230	-6.974132743
	602	1	16.313000000	17.942618049	-4.360720417
	603	1	18.352000000	17.245238977	-6.276753670
	604	1	18.352000000	19.858651303	-5.058099489
	605	2	20.391000000	19.161272230	-6.974132743
	606	2	20.391000000	17.942618049	-4.360720417
	607	2	22.431000000	17.245238977	-6.276753670
	608	2	-22.431000000	18.639997121	-2.444687163
	609	2	-20.391000000	20.556030375	-3.142066235
	610	2	-20.391000000	19.337376193	-0.528653909
	611	2	-18.352000000	18.639997121	-2.444687163
	612	1	-18.352000000	21.253409447	-1.226032981
	613	1	-16.313000000	20.556030375	-3.142066235
	614	2	-16.313000000	19.337376193	-0.528653909
	615	1	-14.274000000	18.639997121	-2.444687163
	616	2	-14.274000000	21.253409447	-1.226032981
	617	2	-12.235000000	20.556030375	-3.142066235
	618	1	-12.235000000	19.337376193	-0.528653909
	619	1	-10.196000000	18.639997121	-2.444687163
	620	2	-10.196000000	21.253409447	-1.226032981
	621	2	-8.157000000	20.556030375	-3.142066235
	622	2	-8.157000000	19.337376193	-0.528653909
	623	1	-6.117000000	18.639997121	-2.444687163
	624	2	-6.117000000	21.253409447	-1.226032981
	625	1	-4.078000000	20.556030375	-3.142066235
	626	2	-4.078000000	19.337376193	-0.528653909
	627	2	-2.039000000	18.639997121	-2.444687163
	628	1	-2.039000000	21.253409447	-1.226032981
	629	1	0.000000000	20.556030375	-3.142066235
	630	1	0.000000000	19.337376193	-0.528653909
	631	2	2.039000000	18.639997121	-2.444687163
	632	1	2.039000000	21.253409447	-1.226032981
	633	1	4.078000000	20.556030375	-3.142066235
	634	2	4.078000000	19.337376193	-0.528653909
	635	1	6.117000000	18.639997121	-2.444687163
	636	2	6.117000000	21.253409447	-1.226032981
	637	2	8.157000000	20.556030375	-3.142066235
	638	2	8.157000000	19.337376193	-0.528653909
	639	2	10.196000000	18.639997121	-2.444687163
	640	2	10.196000000	21.253409447	-1.226032981
	641	1	12.235000000	20.556030375	-3.142066235
	642	2	12.235000000	19.337376193	-0.528653909
	643	1	14.274000000	18.639997121	-2.444687163
	644	2	14.274000000	21.253409447	-1.226032981
	645	2	16.313000000	20.556030375	-3.142066235
	646	1	16.313000000	19.337376193	-0.528653909