
 30285 atoms
 2 atom types
 -212.071 212.071 xlo xhi
 -212.071 212.071 ylo yhi
 0. 183.523 zlo zhi

Atoms

1 2 0.0 0.0 0.0
2 2 0.0 2.039 2.039
3 2 2.039 0.0 2.039
4 2 2.039 2.039 0.0
5 1 -12.235 -26.509001 2.039
6 2 -10.196 -26.509001 0.0
7 1 -8.157 -28.548 0.0
8 2 -8.157 -26.509001 2.039
9 2 -6.117 -28.548 2.039
10 1 -6.117 -26.509001 0.0
11 1 -4.078 -28.548 0.0
12 2 -4.078 -26.509001 2.039
13 2 -2.039 -28.548 2.039
14 1 -2.039 -26.509001 0.0
15 2 0.0 -28.548 0.0
16 1 0.0 -26.509001 2.039
17 2 2.039 -28.548 2.039
18 2 2.039 -26.509001 0.0
19 1 4.078 -28.548 0.0
20 2 4.078 -26.509001 2.039
21 1 6.117 -28.548 2.039
22 2 6.117 -26.509001 0.0
23 1 8.157 -28.548 0.0
24 2 8.157 -26.509001 2.039
25 1 10.196 -26.509001 0.0
26 2 12.235 -26.509001 2.039
27 1 -18.351999 -22.431 0.0
28 2 -16.313 -24.469999 0.0
29 1 -16.313 -22.431 2.039
30 1 -14.274 -24.469999 2.039
31 1 -14.274 -22.431 0.0
32 1 -12.235 -24.469999 0.0
33 2 -12.235 -22.431 2.039
34 1 -10.196 -24.469999 2.039
35 1 -10.196 -22.431 0.0
36 2 -8.157 -24.469999 0.0
37 2 -8.157 -22.431 2.039
38 1 -6.117 -24.469999 2.039
39 1 -6.117 -22.431 0.0
40 2 -4.078 -24.469999 0.0
41 2 -4.078 -22.431 2.039
42 2 -2.039 -24.469999 2.039
43 2 -2.039 -22.431 0.0
44 2 0.0 -24.469999 0.0
45 2 0.0 -22.431 2.039
46 1 2.039 -24.469999 2.039
47 1 2.039 -22.431 0.0
48 2 4.078 -24.469999 0.0
49 1 4.078 -22.431 2.039
50 2 6.117 -24.469999 2.039
51 1 6.117 -22.431 0.0
52 1 8.157 -24.469999 0.0
53 1 8.157 -22.431 2.039
54 2 10.196 -24.469999 2.039
55 2 10.196 -22.431 0.0
56 2 12.235 -24.469999 0.0
57 2 12.235 -22.431 2.039
58 1 14.274 -24.469999 2.039
59 1 14.274 -22.431 0.0
60 2 16.313 -24.469999 0.0
61 1 16.313 -22.431 2.039
62 1 18.351999 -22.431 0.0
63 2 -22.431 -18.351999 0.0
64 1 -20.391001 -20.391001 0.0
65 2 -20.391001 -18.351999 2.039
66 1 -18.351999 -20.391001 2.039
67 2 -18.351999 -18.351999 0.0
68 1 -16.313 -20.391001 0.0
69 2 -16.313 -18.351999 2.039
70 2 -14.274 -20.391001 2.039
71 1 -14.274 -18.351999 0.0
72 1 -12.235 -20.391001 0.0
73 2 -12.235 -18.351999 2.039
74 1 -10.196 -20.391001 2.039
75 2 -10.196 -18.351999 0.0
76 1 -8.157 -20.391001 0.0
77 2 -8.157 -18.351999 2.039
78 1 -6.117 -20.391001 2.039
79 1 -6.117 -18.351999 0.0
80 2 -4.078 -20.391001 0.0
81 2 -4.078 -18.351999 2.039
82 2 -2.039 -20.391001 2.039
83 2 -2.039 -18.351999 0.0
84 1 0.0 -20.391001 0.0
85 2 0.0 -18.351999 2.039
86 1 2.039 -20.391001 2.039
87 1 2.039 -18.351999 0.0
88 1 4.078 -20.391001 0.0
89 1 4.078 -18.351999 2.039
90 2 6.117 -20.391001 2.039
91 1 6.117 -18.351999 0.0
92 1 8.157 -20.391001 0.0
93 1 8.157 -18.351999 2.039
94 2 10.196 -20.391001 2.039
95 2 10.196 -18.351999 0.0
96 2 12.235 -20.391001 0.0
97 2 12.235 -18.351999 2.039
98 1 14.274 -20.391001 2.039
99 2 14.274 -18.351999 0.0
100 2 16.313 -20.391001 0.0
101 1 16.313 -18.351999 2.039
102 2 18.351999 -20.391001 2.039
103 2 18.351999 -18.351999 0.0
104 2 20.391001 -20.391001 0.0
105 2 20.391001 -18.351999 2.039
106 1 22.431 -18.351999 0.0
107 2 -24.469999 -16.313 0.0
108 1 -24.469999 -14.274 2.039
109 1 -22.431 -16.313 2.039
110 1 -22.431 -14.274 0.0
111 1 -20.391001 -16.313 0.0
112 1 -20.391001 -14.274 2.039
113 2 -18.351999 -16.313 2.039
114 2 -18.351999 -14.274 0.0
115 2 -16.313 -16.313 0.0
116 2 -16.313 -14.274 2.039
117 2 -14.274 -16.313 2.039
118 2 -14.274 -14.274 0.0
119 1 -12.235 -16.313 0.0
120 1 -12.235 -14.274 2.039
121 2 -10.196 -16.313 2.039
122 1 -10.196 -14.274 0.0
123 2 -8.157 -16.313 0.0
124 2 -8.157 -14.274 2.039
125 2 -6.117 -16.313 2.039
126 1 -6.117 -14.274 0.0
127 2 -4.078 -16.313 0.0
128 1 -4.078 -14.274 2.039
129 1 -2.039 -16.313 2.039
130 1 -2.039 -14.274 0.0
131 2 0.0 -16.313 0.0
132 1 0.0 -14.274 2.039
133 2 2.039 -16.313 2.039
134 2 2.039 -14.274 0.0
135 2 4.078 -16.313 0.0
136 2 4.078 -14.274 2.039
137 1 6.117 -16.313 2.039
138 2 6.117 -14.274 0.0
139 1 8.157 -16.313 0.0
140 2 8.157 -14.274 2.039
141 2 10.196 -16.313 2.039
142 2 10.196 -14.274 0.0
143 2 12.235 -16.313 0.0
144 2 12.235 -14.274 2.039
145 2 14.274 -16.313 2.039
146 1 14.274 -14.274 0.0
147 2 16.313 -16.313 0.0
148 1 16.313 -14.274 2.039
149 2 18.351999 -16.313 2.039
150 1 18.351999 -14.274 0.0
151 1 20.391001 -16.313 0.0
152 2 20.391001 -14.274 2.039
153 2 22.431 -16.313 2.039
154 2 22.431 -14.274 0.0
155 1 24.469999 -16.313 0.0
156 2 24.469999 -14.274 2.039
157 1 -26.509001 -12.235 2.039
158 2 -26.509001 -10.196 0.0
159 2 -24.469999 -12.235 0.0
160 2 -24.469999 -10.196 2.039
161 2 -22.431 -12.235 2.039
162 1 -22.431 -10.196 0.0
163 2 -20.391001 -12.235 0.0
164 1 -20.391001 -10.196 2.039
165 2 -18.351999 -12.235 2.039
166 1 -18.351999 -10.196 0.0
167 2 -16.313 -12.235 0.0
168 2 -16.313 -10.196 2.039
169 2 -14.274 -12.235 2.039
170 1 -14.274 -10.196 0.0
171 1 -12.235 -12.235 0.0
172 1 -12.235 -10.196 2.039
173 2 -10.196 -12.235 2.039
174 1 -10.196 -10.196 0.0
175 2 -8.157 -12.235 0.0
176 1 -8.157 -10.196 2.039
177 1 -6.117 -12.235 2.039
178 1 -6.117 -10.196 0.0
179 2 -4.078 -12.235 0.0
180 1 -4.078 -10.196 2.039
181 1 -2.039 -12.235 2.039
182 1 -2.039 -10.196 0.0
183 2 0.0 -12.235 0.0
184 1 0.0 -10.196 2.039
185 2 2.039 -12.235 2.039
186 1 2.039 -10.196 0.0
187 1 4.078 -12.235 0.0
188 1 4.078 -10.196 2.039
189 1 6.117 -12.235 2.039
190 1 6.117 -10.196 0.0
191 1 8.157 -12.235 0.0
192 1 8.157 -10.196 2.039
193 2 10.196 -12.235 2.039
194 2 10.196 -10.196 0.0
195 2 12.235 -12.235 0.0
196 1 12.235 -10.196 2.039
197 2 14.274 -12.235 2.039
198 2 14.274 -10.196 0.0
199 1 16.313 -12.235 0.0
200 1 16.313 -10.196 2.039
201 1 18.351999 -12.235 2.039
202 2 18.351999 -10.196 0.0
203 1 20.391001 -12.235 0.0
204 1 20.391001 -10.196 2.039
205 2 22.431 -12.235 2.039
206 2 22.431 -10.196 0.0
207 2 24.469999 -12.235 0.0
208 2 24.469999 -10.196 2.039
209 1 26.509001 -12.235 2.039
210 1 26.509001 -10.196 0.0
211 2 -28.548 -8.157 0.0
212 1 -28.548 -6.117 2.039
213 1 -26.509001 -8.157 2.039
214 2 -26.509001 -6.117 0.0
215 1 -24.469999 -8.157 0.0
216 1 -24.469999 -6.117 2.039
217 1 -22.431 -8.157 2.039
218 2 -22.431 -6.117 0.0
219 1 -20.391001 -8.157 0.0
220 1 -20.391001 -6.117 2.039
221 2 -18.351999 -8.157 2.039
222 2 -18.351999 -6.117 0.0
223 1 -16.313 -8.157 0.0
224 2 -16.313 -6.117 2.039
225 2 -14.274 -8.157 2.039
226 2 -14.274 -6.117 0.0
227 1 -12.235 -8.157 0.0
228 1 -12.235 -6.117 2.039
229 2 -10.196 -8.157 2.039
230 2 -10.196 -6.117 0.0
231 1 -8.157 -8.157 0.0
232 2 -8.157 -6.117 2.039
233 2 -6.117 -8.157 2.039
234 1 -6.117 -6.117 0.0
235 1 -4.078 -8.157 0.0
236 2 -4.078 -6.117 2.039
237 2 -2.039 -8.157 2.039
238 1 -2.039 -6.117 0.0
239 1 0.0 -8.157 0.0
240 2 0.0 -6.117 2.039
241 1 2.039 -8.157 2.039
242 2 2.039 -6.117 0.0
243 1 4.078 -8.157 0.0
244 2 4.078 -6.117 2.039
245 1 6.117 -8.157 2.039
246 1 6.117 -6.117 0.0
247 2 8.157 -8.157 0.0
248 2 8.157 -6.117 2.039
249 2 10.196 -8.157 2.039
250 2 10.196 -6.117 0.0
251 2 12.235 -8.157 0.0
252 2 12.235 -6.117 2.039
253 1 14.274 -8.157 2.039
254 2 14.274 -6.117 0.0
255 2 16.313 -8.157 0.0
256 2 16.313 -6.117 2.039
257 2 18.351999 -8.157 2.039
258 1 18.351999 -6.117 0.0
259 1 20.391001 -8.157 0.0
260 1 20.391001 -6.117 2.039
261 1 22.431 -8.157 2.039
262 2 22.431 -6.117 0.0
263 1 24.469999 -8.157 0.0
264 1 24.469999 -6.117 2.039
265 2 26.509001 -8.157 2.039
266 2 26.509001 -6.117 0.0
267 2 28.548 -8.157 0.0
268 1 28.548 -6.117 2.039
269 1 -28.548 -4.078 0.0
270 2 -28.548 -2.039 2.039
271 2 -26.509001 -4.078 2.039
272 1 -26.509001 -2.039 0.0
273 2 -24.469999 -4.078 0.0
274 1 -24.469999 -2.039 2.039
275 2 -22.431 -4.078 2.039
276 2 -22.431 -2.039 0.0
277 2 -20.391001 -4.078 0.0
278 1 -20.391001 -2.039 2.039
279 2 -18.351999 -4.078 2.039
280 1 -18.351999 -2.039 0.0
281 2 -16.313 -4.078 0.0
282 2 -16.313 -2.039 2.039
283 1 -14.274 -4.078 2.039
284 2 -14.274 -2.039 0.0
285 1 -12.235 -4.078 0.0
286 2 -12.235 -2.039 2.039
287 1 -10.196 -4.078 2.039
288 2 -10.196 -2.039 0.0
289 2 -8.157 -4.078 0.0
290 2 -8.157 -2.039 2.039
291 1 -6.117 -4.078 2.039
292 1 -6.117 -2.039 0.0
293 1 -4.078 -4.078 0.0
294 2 -4.078 -2.039 2.039
295 1 -2.039 -4.078 2.039
296 2 -2.039 -2.039 0.0
297 2 0.0 -4.078 0.0
298 2 0.0 -2.039 2.039
299 1 2.039 -4.078 2.039
300 1 2.039 -2.039 0.0
301 1 4.078 -4.078 0.0
302 2 4.078 -2.039 2.039
303 1 6.117 -4.078 2.039
304 1 6.117 -2.039 0.0
305 2 8.157 -4.078 0.0
306 1 8.157 -2.039 2.039
307 1 10.196 -4.078 2.039
308 2 10.196 -2.039 0.0
309 2 12.235 -4.078 0.0
310 1 12.235 -2.039 2.039
311 2 14.274 -4.078 2.039
312 2 14.274 -2.039 0.0
313 2 16.313 -4.078 0.0
314 2 16.313 -2.039 2.039
315 1 18.351999 -4.078 2.039
316 1 18.351999 -2.039 0.0
317 2 20.391001 -4.078 0.0
318 2 20.391001 -2.039 2.039
319 1 22.431 -4.078 2.039
320 1 22.431 -2.039 0.0
321 1 24.469999 -4.078 0.0
322 2 24.469999 -2.039 2.039
323 2 26.509001 -4.078 2.039
324 1 26.509001 -2.039 0.0
325 2 28.548 -4.078 0.0
326 2 28.548 -2.039 2.039
327 1 -28.548 0.0 0.0
328 2 -28.548 2.039 2.039
329 1 -26.509001 0.0 2.039
330 2 -26.509001 2.039 0.0
331 1 -24.469999 0.0 0.0
332 2 -24.469999 2.039 2.039
333 2 -22.431 0.0 2.039
334 1 -22.431 2.039 0.0
335 2 -20.391001 0.0 0.0
336 1 -20.391001 2.039 2.039
337 1 -18.351999 0.0 2.039
338 1 -18.351999 2.039 0.0
339 1 -16.313 0.0 0.0
340 1 -16.313 2.039 2.039
341 1 -14.274 0.0 2.039
342 1 -14.274 2.039 0.0
343 1 -12.235 0.0 0.0
344 1 -12.235 2.039 2.039
345 2 -10.196 0.0 2.039
346 2 -10.196 2.039 0.0
347 1 -8.157 0.0 0.0
348 2 -8.157 2.039 2.039
349 2 -6.117 0.0 2.039
350 2 -6.117 2.039 0.0
351 2 -4.078 0.0 0.0
352 1 -4.078 2.039 2.039
353 1 -2.039 0.0 2.039
354 1 -2.039 2.039 0.0
355 2 4.078 0.0 0.0
356 2 4.078 2.039 2.039
357 2 6.117 0.0 2.039
358 2 6.117 2.039 0.0
359 2 8.157 0.0 0.0
360 1 8.157 2.039 2.039
361 1 10.196 0.0 2.039
362 2 10.196 2.039 0.0
363 2 12.235 0.0 0.0
364 2 12.235 2.039 2.039
365 1 14.274 0.0 2.039
366 2 14.274 2.039 0.0
367 1 16.313 0.0 0.0
368 2 16.313 2.039 2.039
369 2 18.351999 0.0 2.039
370 1 18.351999 2.039 0.0
371 1 20.391001 0.0 0.0
372 1 20.391001 2.039 2.039
373 2 22.431 0.0 2.039
374 1 22.431 2.039 0.0
375 2 24.469999 0.0 0.0
376 1 24.469999 2.039 2.039
377 1 26.509001 0.0 2.039
378 2 26.509001 2.039 0.0
379 2 28.548 0.0 0.0
380 2 28.548 2.039 2.039
381 1 -28.548 4.078 0.0
382 2 -28.548 6.117 2.039
383 2 -26.509001 4.078 2.039
384 1 -26.509001 6.117 0.0
385 2 -24.469999 4.078 0.0
386 1 -24.469999 6.117 2.039
387 1 -22.431 4.078 2.039
388 1 -22.431 6.117 0.0
389 1 -20.391001 4.078 0.0
390 1 -20.391001 6.117 2.039
391 2 -18.351999 4.078 2.039
392 1 -18.351999 6.117 0.0
393 1 -16.313 4.078 0.0
394 1 -16.313 6.117 2.039
395 1 -14.274 4.078 2.039
396 1 -14.274 6.117 0.0
397 2 -12.235 4.078 0.0
398 2 -12.235 6.117 2.039
399 1 -10.196 4.078 2.039
400 1 -10.196 6.117 0.0
401 2 -8.157 4.078 0.0
402 1 -8.157 6.117 2.039
403 1 -6.117 4.078 2.039
404 2 -6.117 6.117 0.0
405 2 -4.078 4.078 0.0
406 1 -4.078 6.117 2.039
407 2 -2.039 4.078 2.039
408 2 -2.039 6.117 0.0
409 2 0.0 4.078 0.0
410 1 0.0 6.117 2.039
411 2 2.039 4.078 2.039
412 2 2.039 6.117 0.0
413 1 4.078 4.078 0.0
414 2 4.078 6.117 2.039
415 2 6.117 4.078 2.039
416 1 6.117 6.117 0.0
417 1 8.157 4.078 0.0
418 1 8.157 6.117 2.039
419 2 10.196 4.078 2.039
420 1 10.196 6.117 0.0
421 1 12.235 4.078 0.0
422 1 12.235 6.117 2.039
423 2 14.274 4.078 2.039
424 2 14.274 6.117 0.0
425 1 16.313 4.078 0.0
426 1 16.313 6.117 2.039
427 2 18.351999 4.078 2.039
428 2 18.351999 6.117 0.0
429 2 20.391001 4.078 0.0
430 1 20.391001 6.117 2.039
431 2 22.431 4.078 2.039
432 2 22.431 6.117 0.0
433 2 24.469999 4.078 0.0
434 2 24.469999 6.117 2.039
435 1 26.509001 4.078 2.039
436 2 26.509001 6.117 0.0
437 2 28.548 4.078 0.0
438 1 28.548 6.117 2.039
439 1 -28.548 8.157 0.0
440 1 -26.509001 8.157 2.039
441 2 -26.509001 10.196 0.0
442 1 -24.469999 8.157 0.0
443 2 -24.469999 10.196 2.039
444 2 -22.431 8.157 2.039
445 2 -22.431 10.196 0.0
446 2 -20.391001 8.157 0.0
447 1 -20.391001 10.196 2.039
448 2 -18.351999 8.157 2.039
449 1 -18.351999 10.196 0.0
450 2 -16.313 8.157 0.0
451 2 -16.313 10.196 2.039
452 1 -14.274 8.157 2.039
453 2 -14.274 10.196 0.0
454 1 -12.235 8.157 0.0
455 2 -12.235 10.196 2.039
456 1 -10.196 8.157 2.039
457 2 -10.196 10.196 0.0
458 2 -8.157 8.157 0.0
459 2 -8.157 10.196 2.039
460 2 -6.117 8.157 2.039
461 2 -6.117 10.196 0.0
462 1 -4.078 8.157 0.0
463 2 -4.078 10.196 2.039
464 2 -2.039 8.157 2.039
465 2 -2.039 10.196 0.0
466 1 0.0 8.157 0.0
467 2 0.0 10.196 2.039
468 2 2.039 8.157 2.039
469 2 2.039 10.196 0.0
470 1 4.078 8.157 0.0
471 2 4.078 10.196 2.039
472 2 6.117 8.157 2.039
473 1 6.117 10.196 0.0
474 1 8.157 8.157 0.0
475 2 8.157 10.196 2.039
476 1 10.196 8.157 2.039
477 1 10.196 10.196 0.0
478 2 12.235 8.157 0.0
479 1 12.235 10.196 2.039
480 2 14.274 8.157 2.039
481 1 14.274 10.196 0.0
482 2 16.313 8.157 0.0
483 1 16.313 10.196 2.039
484 2 18.351999 8.157 2.039
485 2 18.351999 10.196 0.0
486 2 20.391001 8.157 0.0
487 1 20.391001 10.196 2.039
488 1 22.431 8.157 2.039
489 2 22.431 10.196 0.0
490 2 24.469999 8.157 0.0
491 1 24.469999 10.196 2.039
492 1 26.509001 8.157 2.039
493 1 26.509001 10.196 0.0
494 1 28.548 8.157 0.0
495 2 -26.509001 12.235 2.039
496 1 -24.469999 12.235 0.0
497 2 -24.469999 14.274 2.039
498 1 -22.431 12.235 2.039
499 1 -22.431 14.274 0.0
500 2 -20.391001 12.235 0.0
501 1 -20.391001 14.274 2.039
502 1 -18.351999 12.235 2.039
503 2 -18.351999 14.274 0.0
504 2 -16.313 12.235 0.0
505 2 -16.313 14.274 2.039
506 2 -14.274 12.235 2.039
507 2 -14.274 14.274 0.0
508 2 -12.235 12.235 0.0
509 2 -12.235 14.274 2.039
510 1 -10.196 12.235 2.039
511 1 -10.196 14.274 0.0
512 1 -8.157 12.235 0.0
513 2 -8.157 14.274 2.039
514 2 -6.117 12.235 2.039
515 2 -6.117 14.274 0.0
516 2 -4.078 12.235 0.0
517 2 -4.078 14.274 2.039
518 1 -2.039 12.235 2.039
519 1 -2.039 14.274 0.0
520 1 0.0 12.235 0.0
521 2 0.0 14.274 2.039
522 2 2.039 12.235 2.039
523 2 2.039 14.274 0.0
524 1 4.078 12.235 0.0
525 1 4.078 14.274 2.039
526 2 6.117 12.235 2.039
527 2 6.117 14.274 0.0
528 2 8.157 12.235 0.0
529 2 8.157 14.274 2.039
530 2 10.196 12.235 2.039
531 1 10.196 14.274 0.0
532 2 12.235 12.235 0.0
533 2 12.235 14.274 2.039
534 2 14.274 12.235 2.039
535 2 14.274 14.274 0.0
536 2 16.313 12.235 0.0
537 1 16.313 14.274 2.039
538 2 18.351999 12.235 2.039
539 1 18.351999 14.274 0.0
540 2 20.391001 12.235 0.0
541 2 20.391001 14.274 2.039
542 1 22.431 12.235 2.039
543 1 22.431 14.274 0.0
544 1 24.469999 12.235 0.0
545 1 24.469999 14.274 2.039
546 1 26.509001 12.235 2.039
547 2 -24.469999 16.313 0.0
548 2 -22.431 16.313 2.039
549 2 -22.431 18.351999 0.0
550 1 -20.391001 16.313 0.0
551 1 -20.391001 18.351999 2.039
552 1 -18.351999 16.313 2.039
553 2 -18.351999 18.351999 0.0
554 2 -16.313 16.313 0.0
555 2 -16.313 18.351999 2.039
556 2 -14.274 16.313 2.039
557 1 -14.274 18.351999 0.0
558 2 -12.235 16.313 0.0
559 1 -12.235 18.351999 2.039
560 2 -10.196 16.313 2.039
561 2 -10.196 18.351999 0.0
562 2 -8.157 16.313 0.0
563 2 -8.157 18.351999 2.039
564 2 -6.117 16.313 2.039
565 1 -6.117 18.351999 0.0
566 2 -4.078 16.313 0.0
567 2 -4.078 18.351999 2.039
568 1 -2.039 16.313 2.039
569 2 -2.039 18.351999 0.0
570 2 0.0 16.313 0.0
571 2 0.0 18.351999 2.039
572 2 2.039 16.313 2.039
573 1 2.039 18.351999 0.0
574 1 4.078 16.313 0.0
575 1 4.078 18.351999 2.039
576 2 6.117 16.313 2.039
577 1 6.117 18.351999 0.0
578 1 8.157 16.313 0.0
579 1 8.157 18.351999 2.039
580 1 10.196 16.313 2.039
581 1 10.196 18.351999 0.0
582 2 12.235 16.313 0.0
583 1 12.235 18.351999 2.039
584 1 14.274 16.313 2.039
585 1 14.274 18.351999 0.0
586 2 16.313 16.313 0.0
587 2 16.313 18.351999 2.039
588 1 18.351999 16.313 2.039
589 1 18.351999 18.351999 0.0
590 2 20.391001 16.313 0.0
591 2 20.391001 18.351999 2.039
592 2 22.431 16.313 2.039
593 2 22.431 18.351999 0.0
594 1 24.469999 16.313 0.0
595 2 -20.391001 20.391001 0.0
596 1 -18.351999 20.391001 2.039
597 2 -18.351999 22.431 0.0
598 1 -16.313 20.391001 0.0
599 2 -16.313 22.431 2.039
600 2 -14.274 20.391001 2.039
601 2 -14.274 22.431 0.0
602 2 -12.235 20.391001 0.0
603 2 -12.235 22.431 2.039
604 2 -10.196 20.391001 2.039
605 1 -10.196 22.431 0.0
606 1 -8.157 20.391001 0.0
607 1 -8.157 22.431 2.039
608 2 -6.117 20.391001 2.039
609 1 -6.117 22.431 0.0
610 2 -4.078 20.391001 0.0
611 2 -4.078 22.431 2.039
612 1 -2.039 20.391001 2.039
613 2 -2.039 22.431 0.0
614 2 0.0 20.391001 0.0
615 2 0.0 22.431 2.039
616 2 2.039 20.391001 2.039
617 1 2.039 22.431 0.0
618 1 4.078 20.391001 0.0
619 1 4.078 22.431 2.039
620 1 6.117 20.391001 2.039
621 2 6.117 22.431 0.0
622 1 8.157 20.391001 0.0
623 2 8.157 22.431 2.039
624 2 10.196 20.391001 2.039
625 2 10.196 22.431 0.0
626 2 12.235 20.391001 0.0
627 2 12.235 22.431 2.039
628 1 14.274 20.391001 2.039
629 1 14.274 22.431 0.0
630 2 16.313 20.391001 0.0
631 1 16.313 22.431 2.039
632 1 18.351999 20.391001 2.039
633 2 18.351999 22.431 0.0
634 2 20.391001 20.391001 0.0
635 1 -16.313 24.469999 0.0
636 2 -14.274 24.469999 2.039
637 2 -12.235 24.469999 0.0
638 1 -12.235 26.509001 2.039
639 1 -10.196 24.469999 2.039
640 1 -10.196 26.509001 0.0
641 1 -8.157 24.469999 0.0
642 1 -8.157 26.509001 2.039
643 1 -6.117 24.469999 2.039
644 1 -6.117 26.509001 0.0
645 2 -4.078 24.469999 0.0
646 1 -4.078 26.509001 2.039
647 1 -2.039 24.469999 2.039
648 2 -2.039 26.509001 0.0
649 1 0.0 24.469999 0.0
650 1 0.0 26.509001 2.039
651 2 2.039 24.469999 2.039
652 1 2.039 26.509001 0.0
653 2 4.078 24.469999 0.0
654 2 4.078 26.509001 2.039
655 2 6.117 24.469999 2.039
656 2 6.117 26.509001 0.0
657 1 8.157 24.469999 0.0
658 2 8.157 26.509001 2.039
659 2 10.196 24.469999 2.039
660 1 10.196 26.509001 0.0
661 2 12.235 24.469999 0.0
662 2 12.235 26.509001 2.039
663 2 14.274 24.469999 2.039
664 2 16.313 24.469999 0.0
665 1 -8.157 28.548 0.0
666 1 -6.117 28.548 2.039
667 1 -4.078 28.548 0.0
668 2 -2.039 28.548 2.039
669 2 0.0 28.548 0.0
670 1 2.039 28.548 2.039
671 2 4.078 28.548 0.0
672 1 6.117 28.548 2.039
673 1 8.157 28.548 0.0
674 2 -12.235 -26.509001 6.117
675 2 -10.196 -26.509001 4.078
676 1 -8.157 -28.548 4.078
677 1 -8.157 -26.509001 6.117
678 1 -6.117 -28.548 6.117
679 2 -6.117 -26.509001 4.078
680 1 -4.078 -28.548 4.078
681 1 -4.078 -26.509001 6.117
682 2 -2.039 -28.548 6.117
683 2 -2.039 -26.509001 4.078
684 2 0.0 -28.548 4.078
685 1 0.0 -26.509001 6.117
686 2 2.039 -28.548 6.117
687 2 2.039 -26.509001 4.078
688 2 4.078 -28.548 4.078
689 1 4.078 -26.509001 6.117
690 2 6.117 -28.548 6.117
691 2 6.117 -26.509001 4.078
692 2 8.157 -28.548 4.078
693 2 8.157 -26.509001 6.117
694 1 10.196 -26.509001 4.078
695 1 12.235 -26.509001 6.117
696 2 -18.351999 -22.431 4.078
697 2 -16.313 -24.469999 4.078
698 1 -16.313 -22.431 6.117
699 1 -14.274 -24.469999 6.117
700 1 -14.274 -22.431 4.078
701 2 -12.235 -24.469999 4.078
702 2 -12.235 -22.431 6.117
703 2 -10.196 -24.469999 6.117
704 2 -10.196 -22.431 4.078
705 1 -8.157 -24.469999 4.078
706 1 -8.157 -22.431 6.117
707 1 -6.117 -24.469999 6.117
708 2 -6.117 -22.431 4.078
709 1 -4.078 -24.469999 4.078
710 1 -4.078 -22.431 6.117
711 2 -2.039 -24.469999 6.117
712 1 -2.039 -22.431 4.078
713 1 0.0 -24.469999 4.078
714 1 0.0 -22.431 6.117
715 1 2.039 -24.469999 6.117
716 2 2.039 -22.431 4.078
717 2 4.078 -24.469999 4.078
718 2 4.078 -22.431 6.117
719 1 6.117 -24.469999 6.117
720 1 6.117 -22.431 4.078
721 1 8.157 -24.469999 4.078
722 1 8.157 -22.431 6.117
723 1 10.196 -24.469999 6.117
724 1 10.196 -22.431 4.078
725 2 12.235 -24.469999 4.078
726 2 12.235 -22.431 6.117
727 1 14.274 -24.469999 6.117
728 2 14.274 -22.431 4.078
729 1 16.313 -24.469999 4.078
730 2 16.313 -22.431 6.117
731 2 18.351999 -22.431 4.078
732 2 -22.431 -18.351999 4.078
733 2 -20.391001 -20.391001 4.078
734 1 -20.391001 -18.351999 6.117
735 1 -18.351999 -20.391001 6.117
736 2 -18.351999 -18.351999 4.078
737 1 -16.313 -20.391001 4.078
738 2 -16.313 -18.351999 6.117
739 1 -14.274 -20.391001 6.117
740 2 -14.274 -18.351999 4.078
741 1 -12.235 -20.391001 4.078
742 2 -12.235 -18.351999 6.117
743 2 -10.196 -20.391001 6.117
744 2 -10.196 -18.351999 4.078
745 2 -8.157 -20.391001 4.078
746 1 -8.157 -18.351999 6.117
747 1 -6.117 -20.391001 6.117
748 2 -6.117 -18.351999 4.078
749 1 -4.078 -20.391001 4.078
750 2 -4.078 -18.351999 6.117
751 1 -2.039 -20.391001 6.117
752 1 -2.039 -18.351999 4.078
753 2 0.0 -20.391001 4.078
754 1 0.0 -18.351999 6.117
755 1 2.039 -20.391001 6.117
756 1 2.039 -18.351999 4.078
757 2 4.078 -20.391001 4.078
758 2 4.078 -18.351999 6.117
759 1 6.117 -20.391001 6.117
760 2 6.117 -18.351999 4.078
761 2 8.157 -20.391001 4.078
762 2 8.157 -18.351999 6.117
763 1 10.196 -20.391001 6.117
764 1 10.196 -18.351999 4.078
765 1 12.235 -20.391001 4.078
766 2 12.235 -18.351999 6.117
767 1 14.274 -20.391001 6.117
768 2 14.274 -18.351999 4.078
769 1 16.313 -20.391001 4.078
770 2 16.313 -18.351999 6.117
771 2 18.351999 -20.391001 6.117
772 1 18.351999 -18.351999 4.078
773 2 20.391001 -20.391001 4.078
774 1 20.391001 -18.351999 6.117
775 2 22.431 -18.351999 4.078
776 2 -24.469999 -16.313 4.078
777 1 -24.469999 -14.274 6.117
778 1 -22.431 -16.313 6.117
779 1 -22.431 -14.274 4.078
780 1 -20.391001 -16.313 4.078
781 2 -20.391001 -14.274 6.117
782 2 -18.351999 -16.313 6.117
783 2 -18.351999 -14.274 4.078
784 2 -16.313 -16.313 4.078
785 2 -16.313 -14.274 6.117
786 2 -14.274 -16.313 6.117
787 2 -14.274 -14.274 4.078
788 1 -12.235 -16.313 4.078
789 2 -12.235 -14.274 6.117
790 1 -10.196 -16.313 6.117
791 1 -10.196 -14.274 4.078
792 2 -8.157 -16.313 4.078
793 2 -8.157 -14.274 6.117
794 2 -6.117 -16.313 6.117
795 1 -6.117 -14.274 4.078
796 1 -4.078 -16.313 4.078
797 2 -4.078 -14.274 6.117
798 2 -2.039 -16.313 6.117
799 2 -2.039 -14.274 4.078
800 1 0.0 -16.313 4.078
801 2 0.0 -14.274 6.117
802 1 2.039 -16.313 6.117
803 1 2.039 -14.274 4.078
804 2 4.078 -16.313 4.078
805 2 4.078 -14.274 6.117
806 2 6.117 -16.313 6.117
807 1 6.117 -14.274 4.078
808 1 8.157 -16.313 4.078
809 1 8.157 -14.274 6.117
810 2 10.196 -16.313 6.117
811 2 10.196 -14.274 4.078
812 2 12.235 -16.313 4.078
813 2 12.235 -14.274 6.117
814 1 14.274 -16.313 6.117
815 1 14.274 -14.274 4.078
816 2 16.313 -16.313 4.078
817 2 16.313 -14.274 6.117
818 2 18.351999 -16.313 6.117
819 2 18.351999 -14.274 4.078
820 1 20.391001 -16.313 4.078
821 1 20.391001 -14.274 6.117
822 2 22.431 -16.313 6.117
823 2 22.431 -14.274 4.078
824 1 24.469999 -16.313 4.078
825 2 24.469999 -14.274 6.117
826 2 -26.509001 -12.235 6.117
827 2 -26.509001 -10.196 4.078
828 1 -24.469999 -12.235 4.078
829 2 -24.469999 -10.196 6.117
830 2 -22.431 -12.235 6.117
831 1 -22.431 -10.196 4.078
832 2 -20.391001 -12.235 4.078
833 2 -20.391001 -10.196 6.117
834 2 -18.351999 -12.235 6.117
835 2 -18.351999 -10.196 4.078
836 1 -16.313 -12.235 4.078
837 2 -16.313 -10.196 6.117
838 1 -14.274 -12.235 6.117
839 1 -14.274 -10.196 4.078
840 2 -12.235 -12.235 4.078
841 1 -12.235 -10.196 6.117
842 2 -10.196 -12.235 6.117
843 2 -10.196 -10.196 4.078
844 1 -8.157 -12.235 4.078
845 1 -8.157 -10.196 6.117
846 1 -6.117 -12.235 6.117
847 2 -6.117 -10.196 4.078
848 1 -4.078 -12.235 4.078
849 2 -4.078 -10.196 6.117
850 1 -2.039 -12.235 6.117
851 2 -2.039 -10.196 4.078
852 2 0.0 -12.235 4.078
853 1 0.0 -10.196 6.117
854 1 2.039 -12.235 6.117
855 1 2.039 -10.196 4.078
856 1 4.078 -12.235 4.078
857 1 4.078 -10.196 6.117
858 2 6.117 -12.235 6.117
859 2 6.117 -10.196 4.078
860 1 8.157 -12.235 4.078
861 1 8.157 -10.196 6.117
862 2 10.196 -12.235 6.117
863 1 10.196 -10.196 4.078
864 1 12.235 -12.235 4.078
865 1 12.235 -10.196 6.117
866 1 14.274 -12.235 6.117
867 1 14.274 -10.196 4.078
868 2 16.313 -12.235 4.078
869 2 16.313 -10.196 6.117
870 2 18.351999 -12.235 6.117
871 1 18.351999 -10.196 4.078
872 1 20.391001 -12.235 4.078
873 2 20.391001 -10.196 6.117
874 1 22.431 -12.235 6.117
875 1 22.431 -10.196 4.078
876 1 24.469999 -12.235 4.078
877 1 24.469999 -10.196 6.117
878 1 26.509001 -12.235 6.117
879 2 26.509001 -10.196 4.078
880 2 -28.548 -8.157 4.078
881 2 -28.548 -6.117 6.117
882 1 -26.509001 -8.157 6.117
883 1 -26.509001 -6.117 4.078
884 2 -24.469999 -8.157 4.078
885 2 -24.469999 -6.117 6.117
886 2 -22.431 -8.157 6.117
887 1 -22.431 -6.117 4.078
888 2 -20.391001 -8.157 4.078
889 1 -20.391001 -6.117 6.117
890 1 -18.351999 -8.157 6.117
891 1 -18.351999 -6.117 4.078
892 2 -16.313 -8.157 4.078
893 2 -16.313 -6.117 6.117
894 2 -14.274 -8.157 6.117
895 2 -14.274 -6.117 4.078
896 2 -12.235 -8.157 4.078
897 1 -12.235 -6.117 6.117
898 2 -10.196 -8.157 6.117
899 2 -10.196 -6.117 4.078
900 1 -8.157 -8.157 4.078
901 1 -8.157 -6.117 6.117
902 2 -6.117 -8.157 6.117
903 1 -6.117 -6.117 4.078
904 2 -4.078 -8.157 4.078
905 2 -4.078 -6.117 6.117
906 2 -2.039 -8.157 6.117
907 1 -2.039 -6.117 4.078
908 1 0.0 -8.157 4.078
909 2 0.0 -6.117 6.117
910 1 2.039 -8.157 6.117
911 2 2.039 -6.117 4.078
912 1 4.078 -8.157 4.078
913 2 4.078 -6.117 6.117
914 2 6.117 -8.157 6.117
915 1 6.117 -6.117 4.078
916 1 8.157 -8.157 4.078
917 2 8.157 -6.117 6.117
918 1 10.196 -8.157 6.117
919 2 10.196 -6.117 4.078
920 2 12.235 -8.157 4.078
921 1 12.235 -6.117 6.117
922 2 14.274 -8.157 6.117
923 1 14.274 -6.117 4.078
924 1 16.313 -8.157 4.078
925 2 16.313 -6.117 6.117
926 1 18.351999 -8.157 6.117
927 1 18.351999 -6.117 4.078
928 2 20.391001 -8.157 4.078
929 2 20.391001 -6.117 6.117
930 2 22.431 -8.157 6.117
931 1 22.431 -6.117 4.078
932 1 24.469999 -8.157 4.078
933 1 24.469999 -6.117 6.117
934 1 26.509001 -8.157 6.117
935 2 26.509001 -6.117 4.078
936 2 28.548 -8.157 4.078
937 1 28.548 -6.117 6.117
938 1 -28.548 -4.078 4.078
939 2 -28.548 -2.039 6.117
940 1 -26.509001 -4.078 6.117
941 2 -26.509001 -2.039 4.078
942 1 -24.469999 -4.078 4.078
943 1 -24.469999 -2.039 6.117
944 2 -22.431 -4.078 6.117
945 1 -22.431 -2.039 4.078
946 1 -20.391001 -4.078 4.078
947 2 -20.391001 -2.039 6.117
948 1 -18.351999 -4.078 6.117
949 1 -18.351999 -2.039 4.078
950 2 -16.313 -4.078 4.078
951 2 -16.313 -2.039 6.117
952 2 -14.274 -4.078 6.117
953 2 -14.274 -2.039 4.078
954 1 -12.235 -4.078 4.078
955 2 -12.235 -2.039 6.117
956 2 -10.196 -4.078 6.117
957 2 -10.196 -2.039 4.078
958 2 -8.157 -4.078 4.078
959 1 -8.157 -2.039 6.117
960 2 -6.117 -4.078 6.117
961 2 -6.117 -2.039 4.078
962 1 -4.078 -4.078 4.078
963 2 -4.078 -2.039 6.117
964 1 -2.039 -4.078 6.117
965 1 -2.039 -2.039 4.078
966 1 0.0 -4.078 4.078
967 2 0.0 -2.039 6.117
968 2 2.039 -4.078 6.117
969 2 2.039 -2.039 4.078
970 2 4.078 -4.078 4.078
971 2 4.078 -2.039 6.117
972 2 6.117 -4.078 6.117
973 2 6.117 -2.039 4.078
974 2 8.157 -4.078 4.078
975 1 8.157 -2.039 6.117
976 1 10.196 -4.078 6.117
977 1 10.196 -2.039 4.078
978 1 12.235 -4.078 4.078
979 2 12.235 -2.039 6.117
980 1 14.274 -4.078 6.117
981 2 14.274 -2.039 4.078
982 2 16.313 -4.078 4.078
983 1 16.313 -2.039 6.117
984 2 18.351999 -4.078 6.117
985 1 18.351999 -2.039 4.078
986 1 20.391001 -4.078 4.078
987 1 20.391001 -2.039 6.117
988 1 22.431 -4.078 6.117
989 2 22.431 -2.039 4.078
990 2 24.469999 -4.078 4.078
991 2 24.469999 -2.039 6.117
992 2 26.509001 -4.078 6.117
993 2 26.509001 -2.039 4.078
994 2 28.548 -4.078 4.078
995 2 28.548 -2.039 6.117
996 2 -28.548 0.0 4.078
997 1 -28.548 2.039 6.117
998 2 -26.509001 0.0 6.117
999 1 -26.509001 2.039 4.078
1000 2 -24.469999 0.0 4.078
1001 1 -24.469999 2.039 6.117
1002 2 -22.431 0.0 6.117
1003 1 -22.431 2.039 4.078
1004 2 -20.391001 0.0 4.078
1005 1 -20.391001 2.039 6.117
1006 2 -18.351999 0.0 6.117
1007 2 -18.351999 2.039 4.078
1008 1 -16.313 0.0 4.078
1009 2 -16.313 2.039 6.117
1010 1 -14.274 0.0 6.117
1011 2 -14.274 2.039 4.078
1012 2 -12.235 0.0 4.078
1013 2 -12.235 2.039 6.117
1014 2 -10.196 0.0 6.117
1015 1 -10.196 2.039 4.078
1016 1 -8.157 0.0 4.078
1017 2 -8.157 2.039 6.117
1018 1 -6.117 0.0 6.117
1019 1 -6.117 2.039 4.078
1020 1 -4.078 0.0 4.078
1021 2 -4.078 2.039 6.117
1022 1 -2.039 0.0 6.117
1023 2 -2.039 2.039 4.078
1024 1 0.0 0.0 4.078
1025 2 0.0 2.039 6.117
1026 1 2.039 0.0 6.117
1027 1 2.039 2.039 4.078
1028 2 4.078 0.0 4.078
1029 2 4.078 2.039 6.117
1030 2 6.117 0.0 6.117
1031 2 6.117 2.039 4.078
1032 1 8.157 0.0 4.078
1033 1 8.157 2.039 6.117
1034 2 10.196 0.0 6.117
1035 2 10.196 2.039 4.078
1036 1 12.235 0.0 4.078
1037 2 12.235 2.039 6.117
1038 2 14.274 0.0 6.117
1039 1 14.274 2.039 4.078
1040 2 16.313 0.0 4.078
1041 2 16.313 2.039 6.117
1042 2 18.351999 0.0 6.117
1043 1 18.351999 2.039 4.078
1044 1 20.391001 0.0 4.078
1045 1 20.391001 2.039 6.117
1046 1 22.431 0.0 6.117
1047 1 22.431 2.039 4.078
1048 1 24.469999 0.0 4.078
1049 1 24.469999 2.039 6.117
1050 1 26.509001 0.0 6.117
1051 2 26.509001 2.039 4.078
1052 1 28.548 0.0 4.078
1053 1 28.548 2.039 6.117
1054 1 -28.548 4.078 4.078
1055 2 -28.548 6.117 6.117
1056 2 -26.509001 4.078 6.117
1057 1 -26.509001 6.117 4.078
1058 2 -24.469999 4.078 4.078
1059 1 -24.469999 6.117 6.117
1060 2 -22.431 4.078 6.117
1061 1 -22.431 6.117 4.078
1062 1 -20.391001 4.078 4.078
1063 2 -20.391001 6.117 6.117
1064 2 -18.351999 4.078 6.117
1065 2 -18.351999 6.117 4.078
1066 2 -16.313 4.078 4.078
1067 1 -16.313 6.117 6.117
1068 1 -14.274 4.078 6.117
1069 2 -14.274 6.117 4.078
1070 1 -12.235 4.078 4.078
1071 1 -12.235 6.117 6.117
1072 2 -10.196 4.078 6.117
1073 2 -10.196 6.117 4.078
1074 2 -8.157 4.078 4.078
1075 1 -8.157 6.117 6.117
1076 1 -6.117 4.078 6.117
1077 2 -6.117 6.117 4.078
1078 1 -4.078 4.078 4.078
1079 1 -4.078 6.117 6.117
1080 2 -2.039 4.078 6.117
1081 1 -2.039 6.117 4.078
1082 1 0.0 4.078 4.078
1083 1 0.0 6.117 6.117
1084 1 2.039 4.078 6.117
1085 2 2.039 6.117 4.078
1086 2 4.078 4.078 4.078
1087 2 4.078 6.117 6.117
1088 2 6.117 4.078 6.117
1089 2 6.117 6.117 4.078
1090 2 8.157 4.078 4.078
1091 1 8.157 6.117 6.117
1092 1 10.196 4.078 6.117
1093 1 10.196 6.117 4.078
1094 2 12.235 4.078 4.078
1095 1 12.235 6.117 6.117
1096 2 14.274 4.078 6.117
1097 1 14.274 6.117 4.078
1098 1 16.313 4.078 4.078
1099 2 16.313 6.117 6.117
1100 2 18.351999 4.078 6.117
1101 2 18.351999 6.117 4.078
1102 1 20.391001 4.078 4.078
1103 2 20.391001 6.117 6.117
1104 1 22.431 4.078 6.117
1105 1 22.431 6.117 4.078
1106 1 24.469999 4.078 4.078
1107 1 24.469999 6.117 6.117
1108 2 26.509001 4.078 6.117
1109 1 26.509001 6.117 4.078
1110 1 28.548 4.078 4.078
1111 1 28.548 6.117 6.117
1112 1 -28.548 8.157 4.078
1113 2 -26.509001 8.157 6.117
1114 2 -26.509001 10.196 4.078
1115 1 -24.469999 8.157 4.078
1116 2 -24.469999 10.196 6.117
1117 2 -22.431 8.157 6.117
1118 2 -22.431 10.196 4.078