 sometext
       30285 atoms
           2 atom types


  -212.070999       212.070999     xlo xhi
  -212.070999       212.070999     ylo yhi
   0.00000000       183.522995     zlo zhi

 Atoms

           1           1   0.00000000       0.00000000       0.00000000    
           2           2   0.00000000       2.03900003       2.03900003    
           3           1   2.03900003       0.00000000       2.03900003    
           4           2   2.03900003       2.03900003       0.00000000    
           5           2  -12.2349997      -26.5090008       2.03900003    
           6           2  -10.1960001      -26.5090008       0.00000000    
           7           2  -8.15699959      -28.5480003       0.00000000    
           8           1  -8.15699959      -26.5090008       2.03900003    
           9           2  -6.11700010      -28.5480003       2.03900003    
          10           2  -6.11700010      -26.5090008       0.00000000    
          11           1  -4.07800007      -28.5480003       0.00000000    
          12           2  -4.07800007      -26.5090008       2.03900003    
          13           1  -2.03900003      -28.5480003       2.03900003    
          14           1  -2.03900003      -26.5090008       0.00000000    
          15           1   0.00000000      -28.5480003       0.00000000    
          16           2   0.00000000      -26.5090008       2.03900003    
          17           2   2.03900003      -28.5480003       2.03900003    
          18           2   2.03900003      -26.5090008       0.00000000    
          19           2   4.07800007      -28.5480003       0.00000000    
          20           1   4.07800007      -26.5090008       2.03900003    
          21           2   6.11700010      -28.5480003       2.03900003    
          22           2   6.11700010      -26.5090008       0.00000000    
          23           2   8.15699959      -28.5480003       0.00000000    
          24           1   8.15699959      -26.5090008       2.03900003    
          25           2   10.1960001      -26.5090008       0.00000000    
          26           2   12.2349997      -26.5090008       2.03900003    
          27           2  -18.3519993      -22.4309998       0.00000000    
          28           2  -16.3129997      -24.4699993       0.00000000    
          29           1  -16.3129997      -22.4309998       2.03900003    
          30           2  -14.2740002      -24.4699993       2.03900003    
          31           1  -14.2740002      -22.4309998       0.00000000    
          32           2  -12.2349997      -24.4699993       0.00000000    
          33           2  -12.2349997      -22.4309998       2.03900003    
          34           2  -10.1960001      -24.4699993       2.03900003    
          35           1  -10.1960001      -22.4309998       0.00000000    
          36           1  -8.15699959      -24.4699993       0.00000000    
          37           2  -8.15699959      -22.4309998       2.03900003    
          38           2  -6.11700010      -24.4699993       2.03900003    
          39           2  -6.11700010      -22.4309998       0.00000000    
          40           2  -4.07800007      -24.4699993       0.00000000    
          41           1  -4.07800007      -22.4309998       2.03900003    
          42           2  -2.03900003      -24.4699993       2.03900003    
          43           2  -2.03900003      -22.4309998       0.00000000    
          44           1   0.00000000      -24.4699993       0.00000000    
          45           2   0.00000000      -22.4309998       2.03900003    
          46           2   2.03900003      -24.4699993       2.03900003    
          47           1   2.03900003      -22.4309998       0.00000000    
          48           2   4.07800007      -24.4699993       0.00000000    
          49           2   4.07800007      -22.4309998       2.03900003    
          50           2   6.11700010      -24.4699993       2.03900003    
          51           1   6.11700010      -22.4309998       0.00000000    
          52           2   8.15699959      -24.4699993       0.00000000    
          53           1   8.15699959      -22.4309998       2.03900003    
          54           1   10.1960001      -24.4699993       2.03900003    
          55           2   10.1960001      -22.4309998       0.00000000    
          56           2   12.2349997      -24.4699993       0.00000000    
          57           2   12.2349997      -22.4309998       2.03900003    
          58           2   14.2740002      -24.4699993       2.03900003    
          59           1   14.2740002      -22.4309998       0.00000000    
          60           2   16.3129997      -24.4699993       0.00000000    
          61           1   16.3129997      -22.4309998       2.03900003    
          62           2   18.3519993      -22.4309998       0.00000000    
          63           1  -22.4309998      -18.3519993       0.00000000    
          64           1  -20.3910007      -20.3910007       0.00000000    
          65           2  -20.3910007      -18.3519993       2.03900003    
          66           2  -18.3519993      -20.3910007       2.03900003    
          67           1  -18.3519993      -18.3519993       0.00000000    
          68           2  -16.3129997      -20.3910007       0.00000000    
          69           1  -16.3129997      -18.3519993       2.03900003    
          70           1  -14.2740002      -20.3910007       2.03900003    
          71           2  -14.2740002      -18.3519993       0.00000000    
          72           1  -12.2349997      -20.3910007       0.00000000    
          73           1  -12.2349997      -18.3519993       2.03900003    
          74           1  -10.1960001      -20.3910007       2.03900003    
          75           2  -10.1960001      -18.3519993       0.00000000    
          76           1  -8.15699959      -20.3910007       0.00000000    
          77           2  -8.15699959      -18.3519993       2.03900003    
          78           2  -6.11700010      -20.3910007       2.03900003    
          79           2  -6.11700010      -18.3519993       0.00000000    
          80           2  -4.07800007      -20.3910007       0.00000000    
          81           1  -4.07800007      -18.3519993       2.03900003    
          82           1  -2.03900003      -20.3910007       2.03900003    
          83           2  -2.03900003      -18.3519993       0.00000000    
          84           1   0.00000000      -20.3910007       0.00000000    
          85           1   0.00000000      -18.3519993       2.03900003    
          86           1   2.03900003      -20.3910007       2.03900003    
          87           2   2.03900003      -18.3519993       0.00000000    
          88           1   4.07800007      -20.3910007       0.00000000    
          89           1   4.07800007      -18.3519993       2.03900003    
          90           2   6.11700010      -20.3910007       2.03900003    
          91           2   6.11700010      -18.3519993       0.00000000    
          92           2   8.15699959      -20.3910007       0.00000000    
          93           1   8.15699959      -18.3519993       2.03900003    
          94           2   10.1960001      -20.3910007       2.03900003    
          95           2   10.1960001      -18.3519993       0.00000000    
          96           1   12.2349997      -20.3910007       0.00000000    
          97           1   12.2349997      -18.3519993       2.03900003    
          98           2   14.2740002      -20.3910007       2.03900003    
          99           1   14.2740002      -18.3519993       0.00000000    
         100           2   16.3129997      -20.3910007       0.00000000    
         101           2   16.3129997      -18.3519993       2.03900003    
         102           2   18.3519993      -20.3910007       2.03900003    
         103           2   18.3519993      -18.3519993       0.00000000    
         104           2   20.3910007      -20.3910007       0.00000000    
         105           1   20.3910007      -18.3519993       2.03900003    
         106           1   22.4309998      -18.3519993       0.00000000    
         107           2  -24.4699993      -16.3129997       0.00000000    
         108           1  -24.4699993      -14.2740002       2.03900003    
         109           1  -22.4309998      -16.3129997       2.03900003    
         110           2  -22.4309998      -14.2740002       0.00000000    
         111           1  -20.3910007      -16.3129997       0.00000000    
         112           1  -20.3910007      -14.2740002       2.03900003    
         113           1  -18.3519993      -16.3129997       2.03900003    
         114           1  -18.3519993      -14.2740002       0.00000000    
         115           1  -16.3129997      -16.3129997       0.00000000    
         116           2  -16.3129997      -14.2740002       2.03900003    
         117           2  -14.2740002      -16.3129997       2.03900003    
         118           2  -14.2740002      -14.2740002       0.00000000    
         119           2  -12.2349997      -16.3129997       0.00000000    
         120           2  -12.2349997      -14.2740002       2.03900003    
         121           1  -10.1960001      -16.3129997       2.03900003    
         122           1  -10.1960001      -14.2740002       0.00000000    
         123           2  -8.15699959      -16.3129997       0.00000000    
         124           2  -8.15699959      -14.2740002       2.03900003    
         125           1  -6.11700010      -16.3129997       2.03900003    
         126           2  -6.11700010      -14.2740002       0.00000000    
         127           1  -4.07800007      -16.3129997       0.00000000    
         128           2  -4.07800007      -14.2740002       2.03900003    
         129           2  -2.03900003      -16.3129997       2.03900003    
         130           1  -2.03900003      -14.2740002       0.00000000    
         131           1   0.00000000      -16.3129997       0.00000000    
         132           2   0.00000000      -14.2740002       2.03900003    
         133           2   2.03900003      -16.3129997       2.03900003    
         134           1   2.03900003      -14.2740002       0.00000000    
         135           1   4.07800007      -16.3129997       0.00000000    
         136           2   4.07800007      -14.2740002       2.03900003    
         137           2   6.11700010      -16.3129997       2.03900003    
         138           1   6.11700010      -14.2740002       0.00000000    
         139           2   8.15699959      -16.3129997       0.00000000    
         140           2   8.15699959      -14.2740002       2.03900003    
         141           1   10.1960001      -16.3129997       2.03900003    
         142           2   10.1960001      -14.2740002       0.00000000    
         143           1   12.2349997      -16.3129997       0.00000000    
         144           1   12.2349997      -14.2740002       2.03900003    
         145           2   14.2740002      -16.3129997       2.03900003    
         146           1   14.2740002      -14.2740002       0.00000000    
         147           2   16.3129997      -16.3129997       0.00000000    
         148           1   16.3129997      -14.2740002       2.03900003    
         149           1   18.3519993      -16.3129997       2.03900003    
         150           1   18.3519993      -14.2740002       0.00000000    
         151           1   20.3910007      -16.3129997       0.00000000    
         152           2   20.3910007      -14.2740002       2.03900003    
         153           2   22.4309998      -16.3129997       2.03900003    
         154           1   22.4309998      -14.2740002       0.00000000    
         155           1   24.4699993      -16.3129997       0.00000000    
         156           2   24.4699993      -14.2740002       2.03900003    
         157           1  -26.5090008      -12.2349997       2.03900003    
         158           1  -26.5090008      -10.1960001       0.00000000    
         159           2  -24.4699993      -12.2349997       0.00000000    
         160           1  -24.4699993      -10.1960001       2.03900003    
         161           2  -22.4309998      -12.2349997       2.03900003    
         162           2  -22.4309998      -10.1960001       0.00000000    
         163           2  -20.3910007      -12.2349997       0.00000000    
         164           1  -20.3910007      -10.1960001       2.03900003    
         165           1  -18.3519993      -12.2349997       2.03900003    
         166           1  -18.3519993      -10.1960001       0.00000000    
         167           2  -16.3129997      -12.2349997       0.00000000    
         168           2  -16.3129997      -10.1960001       2.03900003    
         169           1  -14.2740002      -12.2349997       2.03900003    
         170           2  -14.2740002      -10.1960001       0.00000000    
         171           1  -12.2349997      -12.2349997       0.00000000    
         172           2  -12.2349997      -10.1960001       2.03900003    
         173           2  -10.1960001      -12.2349997       2.03900003    
         174           1  -10.1960001      -10.1960001       0.00000000    
         175           2  -8.15699959      -12.2349997       0.00000000    
         176           2  -8.15699959      -10.1960001       2.03900003    
         177           1  -6.11700010      -12.2349997       2.03900003    
         178           1  -6.11700010      -10.1960001       0.00000000    
         179           2  -4.07800007      -12.2349997       0.00000000    
         180           1  -4.07800007      -10.1960001       2.03900003    
         181           2  -2.03900003      -12.2349997       2.03900003    
         182           1  -2.03900003      -10.1960001       0.00000000    
         183           1   0.00000000      -12.2349997       0.00000000    
         184           2   0.00000000      -10.1960001       2.03900003    
         185           1   2.03900003      -12.2349997       2.03900003    
         186           1   2.03900003      -10.1960001       0.00000000    
         187           1   4.07800007      -12.2349997       0.00000000    
         188           1   4.07800007      -10.1960001       2.03900003    
         189           1   6.11700010      -12.2349997       2.03900003    
         190           2   6.11700010      -10.1960001       0.00000000    
         191           2   8.15699959      -12.2349997       0.00000000    
         192           1   8.15699959      -10.1960001       2.03900003    
         193           1   10.1960001      -12.2349997       2.03900003    
         194           2   10.1960001      -10.1960001       0.00000000    
         195           2   12.2349997      -12.2349997       0.00000000    
         196           2   12.2349997      -10.1960001       2.03900003    
         197           1   14.2740002      -12.2349997       2.03900003    
         198           2   14.2740002      -10.1960001       0.00000000    
         199           2   16.3129997      -12.2349997       0.00000000    
         200           1   16.3129997      -10.1960001       2.03900003    
         201           1   18.3519993      -12.2349997       2.03900003    
         202           1   18.3519993      -10.1960001       0.00000000    
         203           2   20.3910007      -12.2349997       0.00000000    
         204           1   20.3910007      -10.1960001       2.03900003    
         205           1   22.4309998      -12.2349997       2.03900003    
         206           2   22.4309998      -10.1960001       0.00000000    
         207           2   24.4699993      -12.2349997       0.00000000    
         208           1   24.4699993      -10.1960001       2.03900003    
         209           1   26.5090008      -12.2349997       2.03900003    
         210           1   26.5090008      -10.1960001       0.00000000    
         211           1  -28.5480003      -8.15699959       0.00000000    
         212           1  -28.5480003      -6.11700010       2.03900003    
         213           2  -26.5090008      -8.15699959       2.03900003    
         214           1  -26.5090008      -6.11700010       0.00000000    
         215           1  -24.4699993      -8.15699959       0.00000000    
         216           1  -24.4699993      -6.11700010       2.03900003    
         217           2  -22.4309998      -8.15699959       2.03900003    
         218           2  -22.4309998      -6.11700010       0.00000000    
         219           1  -20.3910007      -8.15699959       0.00000000    
         220           1  -20.3910007      -6.11700010       2.03900003    
         221           2  -18.3519993      -8.15699959       2.03900003    
         222           2  -18.3519993      -6.11700010       0.00000000    
         223           1  -16.3129997      -8.15699959       0.00000000    
         224           2  -16.3129997      -6.11700010       2.03900003    
         225           1  -14.2740002      -8.15699959       2.03900003    
         226           2  -14.2740002      -6.11700010       0.00000000    
         227           1  -12.2349997      -8.15699959       0.00000000    
         228           1  -12.2349997      -6.11700010       2.03900003    
         229           1  -10.1960001      -8.15699959       2.03900003    
         230           2  -10.1960001      -6.11700010       0.00000000    
         231           1  -8.15699959      -8.15699959       0.00000000    
         232           2  -8.15699959      -6.11700010       2.03900003    
         233           2  -6.11700010      -8.15699959       2.03900003    
         234           1  -6.11700010      -6.11700010       0.00000000    
         235           1  -4.07800007      -8.15699959       0.00000000    
         236           1  -4.07800007      -6.11700010       2.03900003    
         237           1  -2.03900003      -8.15699959       2.03900003    
         238           1  -2.03900003      -6.11700010       0.00000000    
         239           2   0.00000000      -8.15699959       0.00000000    
         240           1   0.00000000      -6.11700010       2.03900003    
         241           1   2.03900003      -8.15699959       2.03900003    
         242           2   2.03900003      -6.11700010       0.00000000    
         243           1   4.07800007      -8.15699959       0.00000000    
         244           1   4.07800007      -6.11700010       2.03900003    
         245           2   6.11700010      -8.15699959       2.03900003    
         246           1   6.11700010      -6.11700010       0.00000000    
         247           2   8.15699959      -8.15699959       0.00000000    
         248           2   8.15699959      -6.11700010       2.03900003    
         249           1   10.1960001      -8.15699959       2.03900003    
         250           2   10.1960001      -6.11700010       0.00000000    
         251           1   12.2349997      -8.15699959       0.00000000    
         252           2   12.2349997      -6.11700010       2.03900003    
         253           2   14.2740002      -8.15699959       2.03900003    
         254           2   14.2740002      -6.11700010       0.00000000    
         255           1   16.3129997      -8.15699959       0.00000000    
         256           2   16.3129997      -6.11700010       2.03900003    
         257           1   18.3519993      -8.15699959       2.03900003    
         258           1   18.3519993      -6.11700010       0.00000000    
         259           2   20.3910007      -8.15699959       0.00000000    
         260           1   20.3910007      -6.11700010       2.03900003    
         261           2   22.4309998      -8.15699959       2.03900003    
         262           2   22.4309998      -6.11700010       0.00000000    
         263           1   24.4699993      -8.15699959       0.00000000    
         264           1   24.4699993      -6.11700010       2.03900003    
         265           1   26.5090008      -8.15699959       2.03900003    
         266           1   26.5090008      -6.11700010       0.00000000    
         267           2   28.5480003      -8.15699959       0.00000000    
         268           2   28.5480003      -6.11700010       2.03900003    
         269           1  -28.5480003      -4.07800007       0.00000000    
         270           1  -28.5480003      -2.03900003       2.03900003    
         271           2  -26.5090008      -4.07800007       2.03900003    
         272           1  -26.5090008      -2.03900003       0.00000000    
         273           1  -24.4699993      -4.07800007       0.00000000    
         274           2  -24.4699993      -2.03900003       2.03900003    
         275           1  -22.4309998      -4.07800007       2.03900003    
         276           1  -22.4309998      -2.03900003       0.00000000    
         277           1  -20.3910007      -4.07800007       0.00000000    
         278           1  -20.3910007      -2.03900003       2.03900003    
         279           1  -18.3519993      -4.07800007       2.03900003    
         280           1  -18.3519993      -2.03900003       0.00000000    
         281           2  -16.3129997      -4.07800007       0.00000000    
         282           1  -16.3129997      -2.03900003       2.03900003    
         283           2  -14.2740002      -4.07800007       2.03900003    
         284           1  -14.2740002      -2.03900003       0.00000000    
         285           2  -12.2349997      -4.07800007       0.00000000    
         286           1  -12.2349997      -2.03900003       2.03900003    
         287           2  -10.1960001      -4.07800007       2.03900003    
         288           2  -10.1960001      -2.03900003       0.00000000    
         289           2  -8.15699959      -4.07800007       0.00000000    
         290           2  -8.15699959      -2.03900003       2.03900003    
         291           2  -6.11700010      -4.07800007       2.03900003    
         292           2  -6.11700010      -2.03900003       0.00000000    
         293           2  -4.07800007      -4.07800007       0.00000000    
         294           1  -4.07800007      -2.03900003       2.03900003    
         295           2  -2.03900003      -4.07800007       2.03900003    
         296           1  -2.03900003      -2.03900003       0.00000000    
         297           1   0.00000000      -4.07800007       0.00000000    
         298           1   0.00000000      -2.03900003       2.03900003    
         299           2   2.03900003      -4.07800007       2.03900003    
         300           1   2.03900003      -2.03900003       0.00000000    
         301           2   4.07800007      -4.07800007       0.00000000    
         302           2   4.07800007      -2.03900003       2.03900003    
         303           2   6.11700010      -4.07800007       2.03900003    
         304           1   6.11700010      -2.03900003       0.00000000    
         305           2   8.15699959      -4.07800007       0.00000000    
         306           2   8.15699959      -2.03900003       2.03900003    
         307           2   10.1960001      -4.07800007       2.03900003    
         308           2   10.1960001      -2.03900003       0.00000000    
         309           1   12.2349997      -4.07800007       0.00000000    
         310           2   12.2349997      -2.03900003       2.03900003    
         311           1   14.2740002      -4.07800007       2.03900003    
         312           2   14.2740002      -2.03900003       0.00000000    
         313           1   16.3129997      -4.07800007       0.00000000    
         314           1   16.3129997      -2.03900003       2.03900003    
         315           2   18.3519993      -4.07800007       2.03900003    
         316           2   18.3519993      -2.03900003       0.00000000    
         317           1   20.3910007      -4.07800007       0.00000000    
         318           2   20.3910007      -2.03900003       2.03900003    
         319           1   22.4309998      -4.07800007       2.03900003    
         320           2   22.4309998      -2.03900003       0.00000000    
         321           2   24.4699993      -4.07800007       0.00000000    
         322           1   24.4699993      -2.03900003       2.03900003    
         323           1   26.5090008      -4.07800007       2.03900003    
         324           2   26.5090008      -2.03900003       0.00000000    
         325           1   28.5480003      -4.07800007       0.00000000    
         326           2   28.5480003      -2.03900003       2.03900003    
         327           1  -28.5480003       0.00000000       0.00000000    
         328           1  -28.5480003       2.03900003       2.03900003    
         329           1  -26.5090008       0.00000000       2.03900003    
         330           1  -26.5090008       2.03900003       0.00000000    
         331           1  -24.4699993       0.00000000       0.00000000    
         332           1  -24.4699993       2.03900003       2.03900003    
         333           1  -22.4309998       0.00000000       2.03900003    
         334           1  -22.4309998       2.03900003       0.00000000    
         335           2  -20.3910007       0.00000000       0.00000000    
         336           1  -20.3910007       2.03900003       2.03900003    
         337           1  -18.3519993       0.00000000       2.03900003    
         338           1  -18.3519993       2.03900003       0.00000000    
         339           1  -16.3129997       0.00000000       0.00000000    
         340           2  -16.3129997       2.03900003       2.03900003    
         341           2  -14.2740002       0.00000000       2.03900003    
         342           2  -14.2740002       2.03900003       0.00000000    
         343           1  -12.2349997       0.00000000       0.00000000    
         344           1  -12.2349997       2.03900003       2.03900003    
         345           2  -10.1960001       0.00000000       2.03900003    
         346           1  -10.1960001       2.03900003       0.00000000    
         347           1  -8.15699959       0.00000000       0.00000000    
         348           1  -8.15699959       2.03900003       2.03900003    
         349           1  -6.11700010       0.00000000       2.03900003    
         350           2  -6.11700010       2.03900003       0.00000000    
         351           2  -4.07800007       0.00000000       0.00000000    
         352           2  -4.07800007       2.03900003       2.03900003    
         353           2  -2.03900003       0.00000000       2.03900003    
         354           1  -2.03900003       2.03900003       0.00000000    
         355           2   4.07800007       0.00000000       0.00000000    
         356           1   4.07800007       2.03900003       2.03900003    
         357           2   6.11700010       0.00000000       2.03900003    
         358           1   6.11700010       2.03900003       0.00000000    
         359           1   8.15699959       0.00000000       0.00000000    
         360           1   8.15699959       2.03900003       2.03900003    
         361           2   10.1960001       0.00000000       2.03900003    
         362           2   10.1960001       2.03900003       0.00000000    
         363           2   12.2349997       0.00000000       0.00000000    
         364           1   12.2349997       2.03900003       2.03900003    
         365           2   14.2740002       0.00000000       2.03900003    
         366           1   14.2740002       2.03900003       0.00000000    
         367           1   16.3129997       0.00000000       0.00000000    
         368           2   16.3129997       2.03900003       2.03900003    
         369           2   18.3519993       0.00000000       2.03900003    
         370           1   18.3519993       2.03900003       0.00000000    
         371           2   20.3910007       0.00000000       0.00000000    
         372           1   20.3910007       2.03900003       2.03900003    
         373           2   22.4309998       0.00000000       2.03900003    
         374           2   22.4309998       2.03900003       0.00000000    
         375           2   24.4699993       0.00000000       0.00000000    
         376           2   24.4699993       2.03900003       2.03900003    
         377           1   26.5090008       0.00000000       2.03900003    
         378           1   26.5090008       2.03900003       0.00000000    
         379           2   28.5480003       0.00000000       0.00000000    
         380           1   28.5480003       2.03900003       2.03900003    
         381           1  -28.5480003       4.07800007       0.00000000    
         382           1  -28.5480003       6.11700010       2.03900003    
         383           2  -26.5090008       4.07800007       2.03900003    
         384           1  -26.5090008       6.11700010       0.00000000    
         385           1  -24.4699993       4.07800007       0.00000000    
         386           1  -24.4699993       6.11700010       2.03900003    
         387           2  -22.4309998       4.07800007       2.03900003    
         388           2  -22.4309998       6.11700010       0.00000000    
         389           1  -20.3910007       4.07800007       0.00000000    
         390           1  -20.3910007       6.11700010       2.03900003    
         391           1  -18.3519993       4.07800007       2.03900003    
         392           2  -18.3519993       6.11700010       0.00000000    