
        6699 atoms 
           2 atom types 
  -60.0000000       60.000000     xlo xhi 
  -60.0000000       60.000000     ylo yhi 
  -60.0000000       60.000000     zlo zhi 
 Atoms 

	1	1	0.000000000	0.000000000	0.000000000
	2	2	0.000000000	-1.218654182	-2.613412326
	3	1	2.039000000	0.697379072	-1.916033254
	4	1	2.039000000	-1.916033254	-0.697379072
	5	1	-8.157000000	0.514493982	28.397549066
	6	2	-6.117000000	2.430527236	29.094928138
	7	2	-4.078000000	0.514493982	28.397549066
	8	2	-2.039000000	2.430527236	29.094928138
	9	2	0.000000000	0.514493982	28.397549066
	10	1	2.039000000	2.430527236	29.094928138
	11	1	4.078000000	0.514493982	28.397549066
	12	1	6.117000000	2.430527236	29.094928138
	13	1	8.157000000	0.514493982	28.397549066
	14	1	-12.235000000	-3.318512218	27.002448901
	15	1	-10.196000000	-1.401539272	27.700169994
	16	1	-8.157000000	-3.318512218	27.002448901
	17	1	-6.117000000	-1.401539272	27.700169994
	18	2	-6.117000000	-4.015891290	28.918482155
	19	1	-4.078000000	-2.098918344	29.616203247
	20	1	-4.078000000	-3.318512218	27.002448901
	21	2	-2.039000000	-1.401539272	27.700169994
	22	2	-2.039000000	-4.015891290	28.918482155
	23	2	0.000000000	-2.098918344	29.616203247
	24	2	0.000000000	-3.318512218	27.002448901
	25	1	2.039000000	-1.401539272	27.700169994
	26	1	2.039000000	-4.015891290	28.918482155
	27	2	4.078000000	-2.098918344	29.616203247
	28	2	4.078000000	-3.318512218	27.002448901
	29	1	6.117000000	-1.401539272	27.700169994
	30	1	6.117000000	-4.015891290	28.918482155
	31	2	8.157000000	-3.318512218	27.002448901
	32	1	10.196000000	-1.401539272	27.700169994
	33	2	12.235000000	-3.318512218	27.002448901
	34	2	-12.235000000	-7.150578726	25.607690757
	35	2	-10.196000000	-5.234545472	26.305069829
	36	2	-8.157000000	-5.931924544	28.221103083
	37	1	-8.157000000	-7.150578726	25.607690757
	38	2	-6.117000000	-5.234545472	26.305069829
	39	1	-6.117000000	-7.847957798	27.523724010
	40	1	-4.078000000	-5.931924544	28.221103083
	41	1	-4.078000000	-7.150578726	25.607690757
	42	2	-2.039000000	-5.234545472	26.305069829
	43	2	-2.039000000	-7.847957798	27.523724010
	44	1	0.000000000	-5.931924544	28.221103083
	45	2	0.000000000	-7.150578726	25.607690757
	46	2	2.039000000	-5.234545472	26.305069829
	47	1	2.039000000	-7.847957798	27.523724010
	48	2	4.078000000	-5.931924544	28.221103083
	49	2	4.078000000	-7.150578726	25.607690757
	50	2	6.117000000	-5.234545472	26.305069829
	51	2	6.117000000	-7.847957798	27.523724010
	52	1	8.157000000	-5.931924544	28.221103083
	53	1	8.157000000	-7.150578726	25.607690757
	54	1	10.196000000	-5.234545472	26.305069829
	55	2	12.235000000	-7.150578726	25.607690757
	56	1	-12.235000000	-10.982645233	24.212932612
	57	1	-10.196000000	-9.066611979	24.910311684
	58	2	-8.157000000	-9.763991052	26.826344938
	59	2	-8.157000000	-10.982645233	24.212932612
	60	1	-6.117000000	-9.066611979	24.910311684
	61	1	-6.117000000	-11.680024305	26.128965866
	62	1	-4.078000000	-9.763991052	26.826344938
	63	1	-4.078000000	-10.982645233	24.212932612
	64	1	-2.039000000	-9.066611979	24.910311684
	65	2	-2.039000000	-11.680024305	26.128965866
	66	2	0.000000000	-9.763991052	26.826344938
	67	2	0.000000000	-10.982645233	24.212932612
	68	2	2.039000000	-9.066611979	24.910311684
	69	1	2.039000000	-11.680024305	26.128965866
	70	2	4.078000000	-9.763991052	26.826344938
	71	1	4.078000000	-10.982645233	24.212932612
	72	2	6.117000000	-9.066611979	24.910311684
	73	1	6.117000000	-11.680024305	26.128965866
	74	2	8.157000000	-9.763991052	26.826344938
	75	2	8.157000000	-10.982645233	24.212932612
	76	2	10.196000000	-9.066611979	24.910311684
	77	2	12.235000000	-10.982645233	24.212932612
	78	1	-12.235000000	-14.814711741	22.818174468
	79	2	-10.196000000	-12.898678487	23.515553540
	80	2	-8.157000000	-13.596057559	25.431586794
	81	2	-8.157000000	-14.814711741	22.818174468
	82	1	-6.117000000	-12.898678487	23.515553540
	83	2	-6.117000000	-15.512090813	24.734207721
	84	1	-4.078000000	-13.596057559	25.431586794
	85	2	-4.078000000	-14.814711741	22.818174468
	86	1	-2.039000000	-12.898678487	23.515553540
	87	2	-2.039000000	-15.512090813	24.734207721
	88	1	0.000000000	-13.596057559	25.431586794
	89	2	0.000000000	-14.814711741	22.818174468
	90	1	2.039000000	-12.898678487	23.515553540
	91	2	2.039000000	-15.512090813	24.734207721
	92	1	4.078000000	-13.596057559	25.431586794
	93	2	4.078000000	-14.814711741	22.818174468
	94	2	6.117000000	-12.898678487	23.515553540
	95	2	6.117000000	-15.512090813	24.734207721
	96	2	8.157000000	-13.596057559	25.431586794
	97	2	8.157000000	-14.814711741	22.818174468
	98	2	10.196000000	-12.898678487	23.515553540
	99	2	12.235000000	-14.814711741	22.818174468
	100	2	-10.196000000	-16.731684687	22.120453375
	101	2	-8.157000000	-18.647717941	21.423074303
	102	2	-6.117000000	-16.731684687	22.120453375
	103	1	-4.078000000	-17.429063759	24.036486629
	104	2	-4.078000000	-18.647717941	21.423074303
	105	1	-2.039000000	-16.731684687	22.120453375
	106	2	0.000000000	-17.429063759	24.036486629
	107	1	0.000000000	-18.647717941	21.423074303
	108	1	2.039000000	-16.731684687	22.120453375
	109	1	4.078000000	-17.429063759	24.036486629
	110	2	4.078000000	-18.647717941	21.423074303
	111	2	6.117000000	-16.731684687	22.120453375
	112	2	8.157000000	-18.647717941	21.423074303
	113	2	10.196000000	-16.731684687	22.120453375
	114	2	-6.117000000	-20.563751195	20.725695231
	115	2	-2.039000000	-20.563751195	20.725695231
	116	1	2.039000000	-20.563751195	20.725695231
	117	1	6.117000000	-20.563751195	20.725695231
	118	1	-4.078000000	9.573385142	27.354998847
	119	2	0.000000000	9.573385142	27.354998847
	120	1	4.078000000	9.573385142	27.354998847
	121	1	-12.235000000	5.741318634	25.960240703
	122	2	-10.196000000	7.657351888	26.657619775
	123	1	-8.157000000	5.741318634	25.960240703
	124	2	-6.117000000	7.657351888	26.657619775
	125	2	-6.117000000	5.043939562	27.876273956
	126	1	-4.078000000	6.959972816	28.573653029
	127	2	-4.078000000	5.741318634	25.960240703
	128	2	-2.039000000	7.657351888	26.657619775
	129	2	-2.039000000	5.043939562	27.876273956
	130	1	0.000000000	6.959972816	28.573653029
	131	1	0.000000000	5.741318634	25.960240703
	132	1	2.039000000	7.657351888	26.657619775
	133	1	2.039000000	5.043939562	27.876273956
	134	2	4.078000000	6.959972816	28.573653029
	135	1	4.078000000	5.741318634	25.960240703
	136	2	6.117000000	7.657351888	26.657619775
	137	1	6.117000000	5.043939562	27.876273956
	138	1	8.157000000	5.741318634	25.960240703
	139	2	10.196000000	7.657351888	26.657619775
	140	1	12.235000000	5.741318634	25.960240703
	141	2	-16.313000000	1.909252127	24.565482558
	142	2	-14.274000000	3.825285380	25.262861630
	143	2	-12.235000000	3.127906308	27.178894884
	144	1	-12.235000000	1.909252127	24.565482558
	145	1	-10.196000000	3.825285380	25.262861630
	146	2	-10.196000000	1.211873054	26.481515812
	147	1	-8.157000000	3.127906308	27.178894884
	148	2	-8.157000000	1.909252127	24.565482558
	149	1	-6.117000000	3.825285380	25.262861630
	150	1	-6.117000000	1.211873054	26.481515812
	151	1	-4.078000000	3.127906308	27.178894884
	152	2	-4.078000000	1.909252127	24.565482558
	153	1	-2.039000000	3.825285380	25.262861630
	154	1	-2.039000000	1.211873054	26.481515812
	155	1	0.000000000	3.127906308	27.178894884
	156	1	0.000000000	1.909252127	24.565482558
	157	1	2.039000000	3.825285380	25.262861630
	158	1	2.039000000	1.211873054	26.481515812
	159	2	4.078000000	3.127906308	27.178894884
	160	1	4.078000000	1.909252127	24.565482558
	161	1	6.117000000	3.825285380	25.262861630
	162	1	6.117000000	1.211873054	26.481515812
	163	1	8.157000000	3.127906308	27.178894884
	164	2	8.157000000	1.909252127	24.565482558
	165	1	10.196000000	3.825285380	25.262861630
	166	2	10.196000000	1.211873054	26.481515812
	167	1	12.235000000	3.127906308	27.178894884
	168	1	12.235000000	1.909252127	24.565482558
	169	1	14.274000000	3.825285380	25.262861630
	170	1	16.313000000	1.909252127	24.565482558
	171	1	-16.313000000	-1.923754074	23.170382394
	172	1	-14.274000000	-0.006781127	23.868103486
	173	2	-14.274000000	-2.621133146	25.086415647
	174	1	-12.235000000	-0.704160199	25.784136740
	175	1	-12.235000000	-1.923754074	23.170382394
	176	1	-10.196000000	-0.006781127	23.868103486
	177	2	-10.196000000	-2.621133146	25.086415647
	178	2	-8.157000000	-0.704160199	25.784136740
	179	1	-8.157000000	-1.923754074	23.170382394
	180	1	-6.117000000	-0.006781127	23.868103486
	181	2	-6.117000000	-2.621133146	25.086415647
	182	1	-4.078000000	-0.704160199	25.784136740
	183	2	-4.078000000	-1.923754074	23.170382394
	184	1	-2.039000000	-0.006781127	23.868103486
	185	2	-2.039000000	-2.621133146	25.086415647
	186	1	0.000000000	-0.704160199	25.784136740
	187	1	0.000000000	-1.923754074	23.170382394
	188	1	2.039000000	-0.006781127	23.868103486
	189	2	2.039000000	-2.621133146	25.086415647
	190	1	4.078000000	-0.704160199	25.784136740
	191	1	4.078000000	-1.923754074	23.170382394
	192	1	6.117000000	-0.006781127	23.868103486
	193	1	6.117000000	-2.621133146	25.086415647
	194	1	8.157000000	-0.704160199	25.784136740
	195	2	8.157000000	-1.923754074	23.170382394
	196	2	10.196000000	-0.006781127	23.868103486
	197	2	10.196000000	-2.621133146	25.086415647
	198	1	12.235000000	-0.704160199	25.784136740
	199	2	12.235000000	-1.923754074	23.170382394
	200	1	14.274000000	-0.006781127	23.868103486
	201	1	14.274000000	-2.621133146	25.086415647
	202	2	16.313000000	-1.923754074	23.170382394
	203	2	-18.352000000	-3.839787327	22.473003321
	204	2	-16.313000000	-4.537166400	24.389036575
	205	1	-16.313000000	-5.755820581	21.775624249
	206	2	-14.274000000	-3.839787327	22.473003321
	207	1	-14.274000000	-6.453199653	23.691657503
	208	2	-12.235000000	-4.537166400	24.389036575
	209	2	-12.235000000	-5.755820581	21.775624249
	210	2	-10.196000000	-3.839787327	22.473003321
	211	1	-10.196000000	-6.453199653	23.691657503
	212	1	-8.157000000	-4.537166400	24.389036575
	213	2	-8.157000000	-5.755820581	21.775624249
	214	2	-6.117000000	-3.839787327	22.473003321
	215	2	-6.117000000	-6.453199653	23.691657503
	216	1	-4.078000000	-4.537166400	24.389036575
	217	2	-4.078000000	-5.755820581	21.775624249
	218	2	-2.039000000	-3.839787327	22.473003321
	219	1	-2.039000000	-6.453199653	23.691657503
	220	1	0.000000000	-4.537166400	24.389036575
	221	1	0.000000000	-5.755820581	21.775624249
	222	1	2.039000000	-3.839787327	22.473003321
	223	2	2.039000000	-6.453199653	23.691657503
	224	1	4.078000000	-4.537166400	24.389036575
	225	1	4.078000000	-5.755820581	21.775624249
	226	2	6.117000000	-3.839787327	22.473003321
	227	1	6.117000000	-6.453199653	23.691657503
	228	1	8.157000000	-4.537166400	24.389036575
	229	1	8.157000000	-5.755820581	21.775624249
	230	1	10.196000000	-3.839787327	22.473003321
	231	2	10.196000000	-6.453199653	23.691657503
	232	1	12.235000000	-4.537166400	24.389036575
	233	2	12.235000000	-5.755820581	21.775624249
	234	1	14.274000000	-3.839787327	22.473003321
	235	2	14.274000000	-6.453199653	23.691657503
	236	2	16.313000000	-4.537166400	24.389036575
	237	2	16.313000000	-5.755820581	21.775624249
	238	2	18.352000000	-3.839787327	22.473003321
	239	2	-18.352000000	-7.671853835	21.078245177
	240	2	-16.313000000	-8.369232907	22.994278431
	241	1	-16.313000000	-9.587887089	20.380866105
	242	2	-14.274000000	-7.671853835	21.078245177
	243	1	-14.274000000	-10.285266161	22.296899358
	244	2	-12.235000000	-8.369232907	22.994278431
	245	2	-12.235000000	-9.587887089	20.380866105
	246	1	-10.196000000	-7.671853835	21.078245177
	247	1	-10.196000000	-10.285266161	22.296899358
	248	1	-8.157000000	-8.369232907	22.994278431
	249	2	-8.157000000	-9.587887089	20.380866105
	250	2	-6.117000000	-7.671853835	21.078245177
	251	2	-6.117000000	-10.285266161	22.296899358
	252	1	-4.078000000	-8.369232907	22.994278431
	253	1	-4.078000000	-9.587887089	20.380866105
	254	1	-2.039000000	-7.671853835	21.078245177
	255	1	-2.039000000	-10.285266161	22.296899358
	256	1	0.000000000	-8.369232907	22.994278431
	257	1	0.000000000	-9.587887089	20.380866105
	258	2	2.039000000	-7.671853835	21.078245177
	259	1	2.039000000	-10.285266161	22.296899358
	260	1	4.078000000	-8.369232907	22.994278431
	261	2	4.078000000	-9.587887089	20.380866105
	262	1	6.117000000	-7.671853835	21.078245177
	263	2	6.117000000	-10.285266161	22.296899358
	264	1	8.157000000	-8.369232907	22.994278431
	265	2	8.157000000	-9.587887089	20.380866105
	266	1	10.196000000	-7.671853835	21.078245177
	267	2	10.196000000	-10.285266161	22.296899358
	268	1	12.235000000	-8.369232907	22.994278431
	269	2	12.235000000	-9.587887089	20.380866105
	270	1	14.274000000	-7.671853835	21.078245177
	271	2	14.274000000	-10.285266161	22.296899358
	272	1	16.313000000	-8.369232907	22.994278431
	273	2	16.313000000	-9.587887089	20.380866105
	274	2	18.352000000	-7.671853835	21.078245177
	275	2	-18.352000000	-11.503920343	19.683487032
	276	1	-16.313000000	-12.201299415	21.599520286
	277	2	-16.313000000	-13.419953596	18.986107960
	278	1	-14.274000000	-11.503920343	19.683487032
	279	1	-14.274000000	-14.117332669	20.902141214
	280	1	-12.235000000	-12.201299415	21.599520286
	281	1	-12.235000000	-13.419953596	18.986107960
	282	1	-10.196000000	-11.503920343	19.683487032
	283	1	-10.196000000	-14.117332669	20.902141214
	284	1	-8.157000000	-12.201299415	21.599520286
	285	1	-8.157000000	-13.419953596	18.986107960
	286	2	-6.117000000	-11.503920343	19.683487032
	287	1	-6.117000000	-14.117332669	20.902141214
	288	2	-4.078000000	-12.201299415	21.599520286
	289	1	-4.078000000	-13.419953596	18.986107960
	290	1	-2.039000000	-11.503920343	19.683487032
	291	1	-2.039000000	-14.117332669	20.902141214
	292	1	0.000000000	-12.201299415	21.599520286
	293	2	0.000000000	-13.419953596	18.986107960
	294	1	2.039000000	-11.503920343	19.683487032
	295	1	2.039000000	-14.117332669	20.902141214
	296	2	4.078000000	-12.201299415	21.599520286
	297	2	4.078000000	-13.419953596	18.986107960
	298	1	6.117000000	-11.503920343	19.683487032
	299	2	6.117000000	-14.117332669	20.902141214
	300	2	8.157000000	-12.201299415	21.599520286
	301	2	8.157000000	-13.419953596	18.986107960
	302	1	10.196000000	-11.503920343	19.683487032
	303	2	10.196000000	-14.117332669	20.902141214
	304	1	12.235000000	-12.201299415	21.599520286
	305	2	12.235000000	-13.419953596	18.986107960
	306	2	14.274000000	-11.503920343	19.683487032
	307	1	14.274000000	-14.117332669	20.902141214
	308	2	16.313000000	-12.201299415	21.599520286
	309	2	16.313000000	-13.419953596	18.986107960
	310	1	18.352000000	-11.503920343	19.683487032
	311	2	-16.313000000	-17.252959796	17.591007796
	312	2	-14.274000000	-15.336926543	18.288386868
	313	2	-12.235000000	-16.034305615	20.204420122
	314	1	-12.235000000	-17.252959796	17.591007796
	315	2	-10.196000000	-15.336926543	18.288386868
	316	1	-10.196000000	-17.950338869	19.507041049
	317	2	-8.157000000	-16.034305615	20.204420122
	318	2	-8.157000000	-17.252959796	17.591007796
	319	2	-6.117000000	-15.336926543	18.288386868
	320	1	-6.117000000	-17.950338869	19.507041049
	321	1	-4.078000000	-16.034305615	20.204420122
	322	2	-4.078000000	-17.252959796	17.591007796
	323	1	-2.039000000	-15.336926543	18.288386868
	324	2	-2.039000000	-17.950338869	19.507041049
	325	2	0.000000000	-16.034305615	20.204420122
	326	2	0.000000000	-17.252959796	17.591007796
	327	1	2.039000000	-15.336926543	18.288386868
	328	1	2.039000000	-17.950338869	19.507041049
	329	1	4.078000000	-16.034305615	20.204420122
	330	1	4.078000000	-17.252959796	17.591007796
	331	2	6.117000000	-15.336926543	18.288386868
	332	2	6.117000000	-17.950338869	19.507041049
	333	2	8.157000000	-16.034305615	20.204420122
	334	2	8.157000000	-17.252959796	17.591007796
	335	1	10.196000000	-15.336926543	18.288386868
	336	2	10.196000000	-17.950338869	19.507041049
	337	1	12.235000000	-16.034305615	20.204420122
	338	2	12.235000000	-17.252959796	17.591007796
	339	1	14.274000000	-15.336926543	18.288386868
	340	2	16.313000000	-17.252959796	17.591007796
	341	1	-14.274000000	-19.168993050	16.893628723
	342	1	-12.235000000	-19.866372122	18.809661977
	343	2	-12.235000000	-21.085026304	16.196249651
	344	2	-10.196000000	-19.168993050	16.893628723
	345	1	-8.157000000	-19.866372122	18.809661977
	346	1	-8.157000000	-21.085026304	16.196249651
	347	1	-6.117000000	-19.168993050	16.893628723
	348	2	-6.117000000	-21.782405376	18.112282905
	349	2	-4.078000000	-19.866372122	18.809661977
	350	1	-4.078000000	-21.085026304	16.196249651
	351	2	-2.039000000	-19.168993050	16.893628723
	352	1	-2.039000000	-21.782405376	18.112282905
	353	2	0.000000000	-19.866372122	18.809661977
	354	1	0.000000000	-21.085026304	16.196249651
	355	2	2.039000000	-19.168993050	16.893628723
	356	1	2.039000000	-21.782405376	18.112282905
	357	2	4.078000000	-19.866372122	18.809661977
	358	2	4.078000000	-21.085026304	16.196249651
	359	2	6.117000000	-19.168993050	16.893628723
	360	2	6.117000000	-21.782405376	18.112282905
	361	1	8.157000000	-19.866372122	18.809661977
	362	2	8.157000000	-21.085026304	16.196249651
	363	2	10.196000000	-19.168993050	16.893628723
	364	2	12.235000000	-19.866372122	18.809661977
	365	2	12.235000000	-21.085026304	16.196249651
	366	2	14.274000000	-19.168993050	16.893628723
	367	1	-10.196000000	-23.001059558	15.498870579
	368	2	-6.117000000	-23.001059558	15.498870579
	369	2	-4.078000000	-23.698438630	17.414903833
	370	2	-4.078000000	-24.917092812	14.801491507
	371	2	-2.039000000	-23.001059558	15.498870579
	372	2	0.000000000	-23.698438630	17.414903833
	373	1	0.000000000	-24.917092812	14.801491507
	374	1	2.039000000	-23.001059558	15.498870579
	375	1	4.078000000	-23.698438630	17.414903833
	376	2	4.078000000	-24.917092812	14.801491507
	377	2	6.117000000	-23.001059558	15.498870579
	378	1	10.196000000	-23.001059558	15.498870579
	379	1	-4.078000000	14.801491507	24.917092812
	380	1	0.000000000	14.801491507	24.917092812
	381	1	4.078000000	14.801491507	24.917092812
	382	2	-12.235000000	10.968485306	23.521992647
	383	1	-10.196000000	12.884518560	24.219371719
	384	1	-10.196000000	10.271106234	25.438025901
	385	2	-8.157000000	12.187139488	26.135404973
	386	2	-8.157000000	10.968485306	23.521992647
	387	2	-6.117000000	12.884518560	24.219371719
	388	2	-6.117000000	10.271106234	25.438025901
	389	1	-4.078000000	12.187139488	26.135404973
	390	2	-4.078000000	10.968485306	23.521992647
	391	1	-2.039000000	12.884518560	24.219371719
	392	2	-2.039000000	10.271106234	25.438025901
	393	2	0.000000000	12.187139488	26.135404973
	394	2	0.000000000	10.968485306	23.521992647
	395	2	2.039000000	12.884518560	24.219371719
	396	1	2.039000000	10.271106234	25.438025901
	397	1	4.078000000	12.187139488	26.135404973
	398	2	4.078000000	10.968485306	23.521992647
	399	2	6.117000000	12.884518560	24.219371719
	400	1	6.117000000	10.271106234	25.438025901
	401	2	8.157000000	12.187139488	26.135404973
	402	1	8.157000000	10.968485306	23.521992647
	403	1	10.196000000	12.884518560	24.219371719
	404	1	10.196000000	10.271106234	25.438025901
	405	1	12.235000000	10.968485306	23.521992647
	406	1	-16.313000000	7.136418799	22.127234502
	407	2	-14.274000000	9.052452053	22.824613575
	408	2	-14.274000000	6.439039727	24.043267756
	409	2	-12.235000000	8.355072980	24.740646829
	410	1	-12.235000000	7.136418799	22.127234502
	411	1	-10.196000000	9.052452053	22.824613575
	412	2	-10.196000000	6.439039727	24.043267756
	413	1	-8.157000000	8.355072980	24.740646829
	414	1	-8.157000000	7.136418799	22.127234502
	415	2	-6.117000000	9.052452053	22.824613575
	416	2	-6.117000000	6.439039727	24.043267756
	417	2	-4.078000000	8.355072980	24.740646829
	418	1	-4.078000000	7.136418799	22.127234502
	419	2	-2.039000000	9.052452053	22.824613575
	420	2	-2.039000000	6.439039727	24.043267756
	421	1	0.000000000	8.355072980	24.740646829
	422	1	0.000000000	7.136418799	22.127234502
	423	1	2.039000000	9.052452053	22.824613575
	424	2	2.039000000	6.439039727	24.043267756
	425	2	4.078000000	8.355072980	24.740646829
	426	2	4.078000000	7.136418799	22.127234502
	427	1	6.117000000	9.052452053	22.824613575
	428	2	6.117000000	6.439039727	24.043267756
	429	2	8.157000000	8.355072980	24.740646829
	430	1	8.157000000	7.136418799	22.127234502
	431	1	10.196000000	9.052452053	22.824613575
	432	2	10.196000000	6.439039727	24.043267756
	433	2	12.235000000	8.355072980	24.740646829
	434	1	12.235000000	7.136418799	22.127234502
	435	2	14.274000000	9.052452053	22.824613575
	436	2	14.274000000	6.439039727	24.043267756
	437	1	16.313000000	7.136418799	22.127234502
	438	1	-20.391000000	3.304352291	20.732476358
	439	1	-18.352000000	5.220385545	21.429855430
	440	1	-18.352000000	2.606973219	22.648509612
	441	2	-16.313000000	4.523006473	23.345888684
	442	1	-16.313000000	3.304352291	20.732476358
	443	2	-14.274000000	5.220385545	21.429855430
	444	2	-14.274000000	2.606973219	22.648509612
	445	2	-12.235000000	4.523006473	23.345888684
	446	1	-12.235000000	3.304352291	20.732476358
	447	1	-10.196000000	5.220385545	21.429855430
	448	2	-10.196000000	2.606973219	22.648509612
	449	1	-8.157000000	4.523006473	23.345888684
	450	1	-8.157000000	3.304352291	20.732476358
	451	2	-6.117000000	5.220385545	21.429855430
	452	2	-6.117000000	2.606973219	22.648509612
	453	1	-4.078000000	4.523006473	23.345888684
	454	1	-4.078000000	3.304352291	20.732476358
	455	2	-2.039000000	5.220385545	21.429855430
	456	1	-2.039000000	2.606973219	22.648509612
	457	1	0.000000000	4.523006473	23.345888684
	458	1	0.000000000	3.304352291	20.732476358
	459	1	2.039000000	5.220385545	21.429855430
	460	2	2.039000000	2.606973219	22.648509612
	461	1	4.078000000	4.523006473	23.345888684
	462	1	4.078000000	3.304352291	20.732476358
	463	2	6.117000000	5.220385545	21.429855430
	464	2	6.117000000	2.606973219	22.648509612
	465	2	8.157000000	4.523006473	23.345888684
	466	1	8.157000000	3.304352291	20.732476358
	467	1	10.196000000	5.220385545	21.429855430
	468	2	10.196000000	2.606973219	22.648509612
	469	2	12.235000000	4.523006473	23.345888684
	470	2	12.235000000	3.304352291	20.732476358
	471	2	14.274000000	5.220385545	21.429855430
	472	1	14.274000000	2.606973219	22.648509612
	473	2	16.313000000	4.523006473	23.345888684
	474	1	16.313000000	3.304352291	20.732476358
	475	2	18.352000000	5.220385545	21.429855430
	476	2	18.352000000	2.606973219	22.648509612
	477	1	20.391000000	3.304352291	20.732476358
	478	1	-20.391000000	0.690939965	21.951130540
	479	1	-20.391000000	-0.528653909	19.337376193
	480	2	-18.352000000	1.388319037	20.035097286
	481	1	-18.352000000	-1.226032981	21.253409447
	482	2	-16.313000000	0.690939965	21.951130540
	483	2	-16.313000000	-0.528653909	19.337376193
	484	2	-14.274000000	1.388319037	20.035097286
	485	1	-14.274000000	-1.226032981	21.253409447
	486	1	-12.235000000	0.690939965	21.951130540
	487	1	-12.235000000	-0.528653909	19.337376193
	488	2	-10.196000000	1.388319037	20.035097286
	489	2	-10.196000000	-1.226032981	21.253409447
	490	2	-8.157000000	0.690939965	21.951130540
	491	1	-8.157000000	-0.528653909	19.337376193
	492	1	-6.117000000	1.388319037	20.035097286
	493	2	-6.117000000	-1.226032981	21.253409447
	494	1	-4.078000000	0.690939965	21.951130540
	495	1	-4.078000000	-0.528653909	19.337376193
	496	2	-2.039000000	1.388319037	20.035097286
	497	1	-2.039000000	-1.226032981	21.253409447
	498	2	0.000000000	0.690939965	21.951130540
	499	2	0.000000000	-0.528653909	19.337376193
	500	1	2.039000000	1.388319037	20.035097286
	501	2	2.039000000	-1.226032981	21.253409447
	502	1	4.078000000	0.690939965	21.951130540
	503	2	4.078000000	-0.528653909	19.337376193
	504	1	6.117000000	1.388319037	20.035097286
	505	1	6.117000000	-1.226032981	21.253409447
	506	1	8.157000000	0.690939965	21.951130540
	507	2	8.157000000	-0.528653909	19.337376193
	508	1	10.196000000	1.388319037	20.035097286
	509	1	10.196000000	-1.226032981	21.253409447
	510	1	12.235000000	0.690939965	21.951130540
	511	1	12.235000000	-0.528653909	19.337376193
	512	1	14.274000000	1.388319037	20.035097286
	513	2	14.274000000	-1.226032981	21.253409447
	514	1	16.313000000	0.690939965	21.951130540
	515	2	16.313000000	-0.528653909	19.337376193
	516	2	18.352000000	1.388319037	20.035097286
	517	1	18.352000000	-1.226032981	21.253409447
	518	1	20.391000000	0.690939965	21.951130540
	519	2	20.391000000	-0.528653909	19.337376193
	520	1	-22.431000000	-2.444687163	18.639997121
	521	2	-20.391000000	-3.142066235	20.556030375
	522	1	-20.391000000	-4.360720417	17.942618049
	523	1	-18.352000000	-2.444687163	18.639997121
	524	1	-18.352000000	-5.058099489	19.858651303
	525	2	-16.313000000	-3.142066235	20.556030375
	526	2	-16.313000000	-4.360720417	17.942618049
	527	2	-14.274000000	-2.444687163	18.639997121
	528	2	-14.274000000	-5.058099489	19.858651303
	529	2	-12.235000000	-3.142066235	20.556030375
	530	2	-12.235000000	-4.360720417	17.942618049
	531	2	-10.196000000	-2.444687163	18.639997121
	532	1	-10.196000000	-5.058099489	19.858651303
	533	1	-8.157000000	-3.142066235	20.556030375
	534	1	-8.157000000	-4.360720417	17.942618049
	535	1	-6.117000000	-2.444687163	18.639997121
	536	1	-6.117000000	-5.058099489	19.858651303
	537	2	-4.078000000	-3.142066235	20.556030375
	538	1	-4.078000000	-4.360720417	17.942618049
	539	1	-2.039000000	-2.444687163	18.639997121
	540	1	-2.039000000	-5.058099489	19.858651303
	541	1	0.000000000	-3.142066235	20.556030375
	542	1	0.000000000	-4.360720417	17.942618049
	543	2	2.039000000	-2.444687163	18.639997121
	544	1	2.039000000	-5.058099489	19.858651303
	545	1	4.078000000	-3.142066235	20.556030375
	546	2	4.078000000	-4.360720417	17.942618049
	547	2	6.117000000	-2.444687163	18.639997121
	548	2	6.117000000	-5.058099489	19.858651303
	549	1	8.157000000	-3.142066235	20.556030375
	550	1	8.157000000	-4.360720417	17.942618049
	551	2	10.196000000	-2.444687163	18.639997121
	552	1	10.196000000	-5.058099489	19.858651303
	553	2	12.235000000	-3.142066235	20.556030375
	554	1	12.235000000	-4.360720417	17.942618049
	555	2	14.274000000	-2.444687163	18.639997121
	556	1	14.274000000	-5.058099489	19.858651303
	557	1	16.313000000	-3.142066235	20.556030375
	558	1	16.313000000	-4.360720417	17.942618049
	559	2	18.352000000	-2.444687163	18.639997121
	560	1	18.352000000	-5.058099489	19.858651303
	561	1	20.391000000	-3.142066235	20.556030375
	562	2	20.391000000	-4.360720417	17.942618049
	563	1	22.431000000	-2.444687163	18.639997121
	564	1	-22.431000000	-6.276753670	17.245238977
	565	1	-20.391000000	-6.974132743	19.161272230
	566	2	-20.391000000	-8.192786924	16.547859904
	567	1	-18.352000000	-6.276753670	17.245238977
	568	2	-18.352000000	-8.890165996	18.463893158
	569	1	-16.313000000	-6.974132743	19.161272230
	570	1	-16.313000000	-8.192786924	16.547859904
	571	2	-14.274000000	-6.276753670	17.245238977
	572	1	-14.274000000	-8.890165996	18.463893158
	573	2	-12.235000000	-6.974132743	19.161272230
	574	1	-12.235000000	-8.192786924	16.547859904
	575	2	-10.196000000	-6.276753670	17.245238977
	576	2	-10.196000000	-8.890165996	18.463893158
	577	1	-8.157000000	-6.974132743	19.161272230
	578	1	-8.157000000	-8.192786924	16.547859904
	579	1	-6.117000000	-6.276753670	17.245238977
	580	1	-6.117000000	-8.890165996	18.463893158
	581	1	-4.078000000	-6.974132743	19.161272230
	582	1	-4.078000000	-8.192786924	16.547859904
	583	1	-2.039000000	-6.276753670	17.245238977
	584	1	-2.039000000	-8.890165996	18.463893158
	585	2	0.000000000	-6.974132743	19.161272230
	586	1	0.000000000	-8.192786924	16.547859904
	587	2	2.039000000	-6.276753670	17.245238977
	588	1	2.039000000	-8.890165996	18.463893158
	589	2	4.078000000	-6.974132743	19.161272230
	590	2	4.078000000	-8.192786924	16.547859904
	591	1	6.117000000	-6.276753670	17.245238977
	592	2	6.117000000	-8.890165996	18.463893158
	593	1	8.157000000	-6.974132743	19.161272230
	594	2	8.157000000	-8.192786924	16.547859904
	595	1	10.196000000	-6.276753670	17.245238977
	596	2	10.196000000	-8.890165996	18.463893158
	597	1	12.235000000	-6.974132743	19.161272230
	598	1	12.235000000	-8.192786924	16.547859904
	599	2	14.274000000	-6.276753670	17.245238977
	600	1	14.274000000	-8.890165996	18.463893158
	601	2	16.313000000	-6.974132743	19.161272230
	602	1	16.313000000	-8.192786924	16.547859904
	603	1	18.352000000	-6.276753670	17.245238977
	604	2	18.352000000	-8.890165996	18.463893158
	605	2	20.391000000	-6.974132743	19.161272230
	606	1	20.391000000	-8.192786924	16.547859904
	607	1	22.431000000	-6.276753670	17.245238977
	608	2	-22.431000000	-10.108820178	15.850480832
	609	1	-20.391000000	-10.806199250	17.766514086
	610	1	-20.391000000	-12.024853432	15.153101760
	611	2	-18.352000000	-10.108820178	15.850480832
	612	2	-18.352000000	-12.722232504	17.069135014
	613	2	-16.313000000	-10.806199250	17.766514086
	614	1	-16.313000000	-12.024853432	15.153101760
	615	2	-14.274000000	-10.108820178	15.850480832
	616	2	-14.274000000	-12.722232504	17.069135014
	617	1	-12.235000000	-10.806199250	17.766514086
	618	1	-12.235000000	-12.024853432	15.153101760
	619	1	-10.196000000	-10.108820178	15.850480832
	620	2	-10.196000000	-12.722232504	17.069135014
	621	2	-8.157000000	-10.806199250	17.766514086
	622	1	-8.157000000	-12.024853432	15.153101760
	623	1	-6.117000000	-10.108820178	15.850480832
	624	1	-6.117000000	-12.722232504	17.069135014
	625	1	-4.078000000	-10.806199250	17.766514086
	626	2	-4.078000000	-12.024853432	15.153101760
	627	2	-2.039000000	-10.108820178	15.850480832
	628	2	-2.039000000	-12.722232504	17.069135014
	629	2	0.000000000	-10.806199250	17.766514086
	630	2	0.000000000	-12.024853432	15.153101760
	631	2	2.039000000	-10.108820178	15.850480832
	632	1	2.039000000	-12.722232504	17.069135014
	633	2	4.078000000	-10.806199250	17.766514086
	634	2	4.078000000	-12.024853432	15.153101760
	635	2	6.117000000	-10.108820178	15.850480832
	636	1	6.117000000	-12.722232504	17.069135014
	637	1	8.157000000	-10.806199250	17.766514086
	638	1	8.157000000	-12.024853432	15.153101760
	639	1	10.196000000	-10.108820178	15.850480832
	640	1	10.196000000	-12.722232504	17.069135014
	641	1	12.235000000	-10.806199250	17.766514086
	642	2	12.235000000	-12.024853432	15.153101760
	643	1	14.274000000	-10.108820178	15.850480832
	644	2	14.274000000	-12.722232504	17.069135014
	645	1	16.313000000	-10.806199250	17.766514086
	646	1	16.313000000	-12.024853432	15.153101760
	647	2	18.352000000	-10.108820178	15.850480832
	648	1	18.352000000	-12.722232504	17.069135014
	649	1	20.391000000	-10.806199250	17.766514086
	650	2	20.391000000	-12.024853432	15.153101760
	651	2	22.431000000	-10.108820178	15.850480832