
        6699 atoms 
           2 atom types 
  -60.0000000       60.000000     xlo xhi 
  -60.0000000       60.000000     ylo yhi 
  -60.0000000       60.000000     zlo zhi 
 Atoms 

	1	1	0.000000000	0.000000000	0.000000000
	2	2	0.000000000	0.986242942	-2.709680213
	3	1	2.039000000	1.847961578	-0.861718636
	4	1	2.039000000	-0.861718636	-1.847961578
	5	1	-8.157000000	-19.716297330	20.443901697
	6	2	-6.117000000	-18.854578694	22.291863275
	7	2	-4.078000000	-19.716297330	20.443901697
	8	2	-2.039000000	-18.854578694	22.291863275
	9	2	0.000000000	-19.716297330	20.443901697
	10	1	2.039000000	-18.854578694	22.291863275
	11	1	4.078000000	-19.716297330	20.443901697
	12	1	6.117000000	-18.854578694	22.291863275
	13	1	8.157000000	-19.716297330	20.443901697
	14	1	-12.235000000	-21.440157219	16.747072234
	15	1	-10.196000000	-20.578015966	18.595940119
	16	1	-8.157000000	-21.440157219	16.747072234
	17	1	-6.117000000	-20.578015966	18.595940119
	18	2	-6.117000000	-23.288118797	17.608790869
	19	1	-4.078000000	-22.425977543	19.457658755
	20	1	-4.078000000	-21.440157219	16.747072234
	21	2	-2.039000000	-20.578015966	18.595940119
	22	2	-2.039000000	-23.288118797	17.608790869
	23	2	0.000000000	-22.425977543	19.457658755
	24	2	0.000000000	-21.440157219	16.747072234
	25	1	2.039000000	-20.578015966	18.595940119
	26	1	2.039000000	-23.288118797	17.608790869
	27	2	4.078000000	-22.425977543	19.457658755
	28	2	4.078000000	-21.440157219	16.747072234
	29	1	6.117000000	-20.578015966	18.595940119
	30	1	6.117000000	-23.288118797	17.608790869
	31	2	8.157000000	-21.440157219	16.747072234
	32	1	10.196000000	-20.578015966	18.595940119
	33	2	12.235000000	-21.440157219	16.747072234
	34	2	-12.235000000	-23.163594491	13.051149078
	35	2	-10.196000000	-22.301875855	14.899110656
	36	2	-8.157000000	-24.149837433	15.760829292
	37	1	-8.157000000	-23.163594491	13.051149078
	38	2	-6.117000000	-22.301875855	14.899110656
	39	1	-6.117000000	-25.011556069	13.912867714
	40	1	-4.078000000	-24.149837433	15.760829292
	41	1	-4.078000000	-23.163594491	13.051149078
	42	2	-2.039000000	-22.301875855	14.899110656
	43	2	-2.039000000	-25.011556069	13.912867714
	44	1	0.000000000	-24.149837433	15.760829292
	45	2	0.000000000	-23.163594491	13.051149078
	46	2	2.039000000	-22.301875855	14.899110656
	47	1	2.039000000	-25.011556069	13.912867714
	48	2	4.078000000	-24.149837433	15.760829292
	49	2	4.078000000	-23.163594491	13.051149078
	50	2	6.117000000	-22.301875855	14.899110656
	51	2	6.117000000	-25.011556069	13.912867714
	52	1	8.157000000	-24.149837433	15.760829292
	53	1	8.157000000	-23.163594491	13.051149078
	54	1	10.196000000	-22.301875855	14.899110656
	55	2	12.235000000	-23.163594491	13.051149078
	56	1	-12.235000000	-24.887031762	9.355225923
	57	1	-10.196000000	-24.025313127	11.203187500
	58	2	-8.157000000	-25.873274704	12.064906136
	59	2	-8.157000000	-24.887031762	9.355225923
	60	1	-6.117000000	-24.025313127	11.203187500
	61	1	-6.117000000	-26.734993340	10.216944558
	62	1	-4.078000000	-25.873274704	12.064906136
	63	1	-4.078000000	-24.887031762	9.355225923
	64	1	-2.039000000	-24.025313127	11.203187500
	65	2	-2.039000000	-26.734993340	10.216944558
	66	2	0.000000000	-25.873274704	12.064906136
	67	2	0.000000000	-24.887031762	9.355225923
	68	2	2.039000000	-24.025313127	11.203187500
	69	1	2.039000000	-26.734993340	10.216944558
	70	2	4.078000000	-25.873274704	12.064906136
	71	1	4.078000000	-24.887031762	9.355225923
	72	2	6.117000000	-24.025313127	11.203187500
	73	1	6.117000000	-26.734993340	10.216944558
	74	2	8.157000000	-25.873274704	12.064906136
	75	2	8.157000000	-24.887031762	9.355225923
	76	2	10.196000000	-24.025313127	11.203187500
	77	2	12.235000000	-24.887031762	9.355225923
	78	1	-12.235000000	-26.610469034	5.659302767
	79	2	-10.196000000	-25.748750398	7.507264345
	80	2	-8.157000000	-27.596711976	8.368982981
	81	2	-8.157000000	-26.610469034	5.659302767
	82	1	-6.117000000	-25.748750398	7.507264345
	83	2	-6.117000000	-28.458430611	6.521021403
	84	1	-4.078000000	-27.596711976	8.368982981
	85	2	-4.078000000	-26.610469034	5.659302767
	86	1	-2.039000000	-25.748750398	7.507264345
	87	2	-2.039000000	-28.458430611	6.521021403
	88	1	0.000000000	-27.596711976	8.368982981
	89	2	0.000000000	-26.610469034	5.659302767
	90	1	2.039000000	-25.748750398	7.507264345
	91	2	2.039000000	-28.458430611	6.521021403
	92	1	4.078000000	-27.596711976	8.368982981
	93	2	4.078000000	-26.610469034	5.659302767
	94	2	6.117000000	-25.748750398	7.507264345
	95	2	6.117000000	-28.458430611	6.521021403
	96	2	8.157000000	-27.596711976	8.368982981
	97	2	8.157000000	-26.610469034	5.659302767
	98	2	10.196000000	-25.748750398	7.507264345
	99	2	12.235000000	-26.610469034	5.659302767
	100	2	-10.196000000	-27.472610288	3.810434882
	101	2	-8.157000000	-28.334328923	1.962473304
	102	2	-6.117000000	-27.472610288	3.810434882
	103	1	-4.078000000	-29.320571865	4.672153517
	104	2	-4.078000000	-28.334328923	1.962473304
	105	1	-2.039000000	-27.472610288	3.810434882
	106	2	0.000000000	-29.320571865	4.672153517
	107	1	0.000000000	-28.334328923	1.962473304
	108	1	2.039000000	-27.472610288	3.810434882
	109	1	4.078000000	-29.320571865	4.672153517
	110	2	4.078000000	-28.334328923	1.962473304
	111	2	6.117000000	-27.472610288	3.810434882
	112	2	8.157000000	-28.334328923	1.962473304
	113	2	10.196000000	-27.472610288	3.810434882
	114	2	-6.117000000	-29.196047559	0.114511726
	115	2	-2.039000000	-29.196047559	0.114511726
	116	1	2.039000000	-29.196047559	0.114511726
	117	1	6.117000000	-29.196047559	0.114511726
	118	1	-4.078000000	-12.573499632	26.112310737
	119	2	0.000000000	-12.573499632	26.112310737
	120	1	4.078000000	-12.573499632	26.112310737
	121	1	-12.235000000	-14.296936903	22.416387581
	122	2	-10.196000000	-13.435218267	24.264349159
	123	1	-8.157000000	-14.296936903	22.416387581
	124	2	-6.117000000	-13.435218267	24.264349159
	125	2	-6.117000000	-16.144898481	23.278106217
	126	1	-4.078000000	-15.283179845	25.126067795
	127	2	-4.078000000	-14.296936903	22.416387581
	128	2	-2.039000000	-13.435218267	24.264349159
	129	2	-2.039000000	-16.144898481	23.278106217
	130	1	0.000000000	-15.283179845	25.126067795
	131	1	0.000000000	-14.296936903	22.416387581
	132	1	2.039000000	-13.435218267	24.264349159
	133	1	2.039000000	-16.144898481	23.278106217
	134	2	4.078000000	-15.283179845	25.126067795
	135	1	4.078000000	-14.296936903	22.416387581
	136	2	6.117000000	-13.435218267	24.264349159
	137	1	6.117000000	-16.144898481	23.278106217
	138	1	8.157000000	-14.296936903	22.416387581
	139	2	10.196000000	-13.435218267	24.264349159
	140	1	12.235000000	-14.296936903	22.416387581
	141	2	-16.313000000	-16.020374174	18.720464426
	142	2	-14.274000000	-15.158655539	20.568426003
	143	2	-12.235000000	-17.006617116	21.430144639
	144	1	-12.235000000	-16.020374174	18.720464426
	145	1	-10.196000000	-15.158655539	20.568426003
	146	2	-10.196000000	-17.868335752	19.582183061
	147	1	-8.157000000	-17.006617116	21.430144639
	148	2	-8.157000000	-16.020374174	18.720464426
	149	1	-6.117000000	-15.158655539	20.568426003
	150	1	-6.117000000	-17.868335752	19.582183061
	151	1	-4.078000000	-17.006617116	21.430144639
	152	2	-4.078000000	-16.020374174	18.720464426
	153	1	-2.039000000	-15.158655539	20.568426003
	154	1	-2.039000000	-17.868335752	19.582183061
	155	1	0.000000000	-17.006617116	21.430144639
	156	1	0.000000000	-16.020374174	18.720464426
	157	1	2.039000000	-15.158655539	20.568426003
	158	1	2.039000000	-17.868335752	19.582183061
	159	2	4.078000000	-17.006617116	21.430144639
	160	1	4.078000000	-16.020374174	18.720464426
	161	1	6.117000000	-15.158655539	20.568426003
	162	1	6.117000000	-17.868335752	19.582183061
	163	1	8.157000000	-17.006617116	21.430144639
	164	2	8.157000000	-16.020374174	18.720464426
	165	1	10.196000000	-15.158655539	20.568426003
	166	2	10.196000000	-17.868335752	19.582183061
	167	1	12.235000000	-17.006617116	21.430144639
	168	1	12.235000000	-16.020374174	18.720464426
	169	1	14.274000000	-15.158655539	20.568426003
	170	1	16.313000000	-16.020374174	18.720464426
	171	1	-16.313000000	-17.744234064	15.023634962
	172	1	-14.274000000	-16.882092810	16.872502848
	173	2	-14.274000000	-19.592195642	15.885353598
	174	1	-12.235000000	-18.730054388	17.734221484
	175	1	-12.235000000	-17.744234064	15.023634962
	176	1	-10.196000000	-16.882092810	16.872502848
	177	2	-10.196000000	-19.592195642	15.885353598
	178	2	-8.157000000	-18.730054388	17.734221484
	179	1	-8.157000000	-17.744234064	15.023634962
	180	1	-6.117000000	-16.882092810	16.872502848
	181	2	-6.117000000	-19.592195642	15.885353598
	182	1	-4.078000000	-18.730054388	17.734221484
	183	2	-4.078000000	-17.744234064	15.023634962
	184	1	-2.039000000	-16.882092810	16.872502848
	185	2	-2.039000000	-19.592195642	15.885353598
	186	1	0.000000000	-18.730054388	17.734221484
	187	1	0.000000000	-17.744234064	15.023634962
	188	1	2.039000000	-16.882092810	16.872502848
	189	2	2.039000000	-19.592195642	15.885353598
	190	1	4.078000000	-18.730054388	17.734221484
	191	1	4.078000000	-17.744234064	15.023634962
	192	1	6.117000000	-16.882092810	16.872502848
	193	1	6.117000000	-19.592195642	15.885353598
	194	1	8.157000000	-18.730054388	17.734221484
	195	2	8.157000000	-17.744234064	15.023634962
	196	2	10.196000000	-16.882092810	16.872502848
	197	2	10.196000000	-19.592195642	15.885353598
	198	1	12.235000000	-18.730054388	17.734221484
	199	2	12.235000000	-17.744234064	15.023634962
	200	1	14.274000000	-16.882092810	16.872502848
	201	1	14.274000000	-19.592195642	15.885353598
	202	2	16.313000000	-17.744234064	15.023634962
	203	2	-18.352000000	-18.605952700	13.175673385
	204	2	-16.313000000	-20.453914277	14.037392020
	205	1	-16.313000000	-19.467671335	11.327711807
	206	2	-14.274000000	-18.605952700	13.175673385
	207	1	-14.274000000	-21.315632913	12.189430443
	208	2	-12.235000000	-20.453914277	14.037392020
	209	2	-12.235000000	-19.467671335	11.327711807
	210	2	-10.196000000	-18.605952700	13.175673385
	211	1	-10.196000000	-21.315632913	12.189430443
	212	1	-8.157000000	-20.453914277	14.037392020
	213	2	-8.157000000	-19.467671335	11.327711807
	214	2	-6.117000000	-18.605952700	13.175673385
	215	2	-6.117000000	-21.315632913	12.189430443
	216	1	-4.078000000	-20.453914277	14.037392020
	217	2	-4.078000000	-19.467671335	11.327711807
	218	2	-2.039000000	-18.605952700	13.175673385
	219	1	-2.039000000	-21.315632913	12.189430443
	220	1	0.000000000	-20.453914277	14.037392020
	221	1	0.000000000	-19.467671335	11.327711807
	222	1	2.039000000	-18.605952700	13.175673385
	223	2	2.039000000	-21.315632913	12.189430443
	224	1	4.078000000	-20.453914277	14.037392020
	225	1	4.078000000	-19.467671335	11.327711807
	226	2	6.117000000	-18.605952700	13.175673385
	227	1	6.117000000	-21.315632913	12.189430443
	228	1	8.157000000	-20.453914277	14.037392020
	229	1	8.157000000	-19.467671335	11.327711807
	230	1	10.196000000	-18.605952700	13.175673385
	231	2	10.196000000	-21.315632913	12.189430443
	232	1	12.235000000	-20.453914277	14.037392020
	233	2	12.235000000	-19.467671335	11.327711807
	234	1	14.274000000	-18.605952700	13.175673385
	235	2	14.274000000	-21.315632913	12.189430443
	236	2	16.313000000	-20.453914277	14.037392020
	237	2	16.313000000	-19.467671335	11.327711807
	238	2	18.352000000	-18.605952700	13.175673385
	239	2	-18.352000000	-20.329389971	9.479750229
	240	2	-16.313000000	-22.177351549	10.341468865
	241	1	-16.313000000	-21.191108607	7.631788651
	242	2	-14.274000000	-20.329389971	9.479750229
	243	1	-14.274000000	-23.039070184	8.493507287
	244	2	-12.235000000	-22.177351549	10.341468865
	245	2	-12.235000000	-21.191108607	7.631788651
	246	1	-10.196000000	-20.329389971	9.479750229
	247	1	-10.196000000	-23.039070184	8.493507287
	248	1	-8.157000000	-22.177351549	10.341468865
	249	2	-8.157000000	-21.191108607	7.631788651
	250	2	-6.117000000	-20.329389971	9.479750229
	251	2	-6.117000000	-23.039070184	8.493507287
	252	1	-4.078000000	-22.177351549	10.341468865
	253	1	-4.078000000	-21.191108607	7.631788651
	254	1	-2.039000000	-20.329389971	9.479750229
	255	1	-2.039000000	-23.039070184	8.493507287
	256	1	0.000000000	-22.177351549	10.341468865
	257	1	0.000000000	-21.191108607	7.631788651
	258	2	2.039000000	-20.329389971	9.479750229
	259	1	2.039000000	-23.039070184	8.493507287
	260	1	4.078000000	-22.177351549	10.341468865
	261	2	4.078000000	-21.191108607	7.631788651
	262	1	6.117000000	-20.329389971	9.479750229
	263	2	6.117000000	-23.039070184	8.493507287
	264	1	8.157000000	-22.177351549	10.341468865
	265	2	8.157000000	-21.191108607	7.631788651
	266	1	10.196000000	-20.329389971	9.479750229
	267	2	10.196000000	-23.039070184	8.493507287
	268	1	12.235000000	-22.177351549	10.341468865
	269	2	12.235000000	-21.191108607	7.631788651
	270	1	14.274000000	-20.329389971	9.479750229
	271	2	14.274000000	-23.039070184	8.493507287
	272	1	16.313000000	-22.177351549	10.341468865
	273	2	16.313000000	-21.191108607	7.631788651
	274	2	18.352000000	-20.329389971	9.479750229
	275	2	-18.352000000	-22.052827242	5.783827074
	276	1	-16.313000000	-23.900788820	6.645545709
	277	2	-16.313000000	-22.914545878	3.935865496
	278	1	-14.274000000	-22.052827242	5.783827074
	279	1	-14.274000000	-24.762507456	4.797584131
	280	1	-12.235000000	-23.900788820	6.645545709
	281	1	-12.235000000	-22.914545878	3.935865496
	282	1	-10.196000000	-22.052827242	5.783827074
	283	1	-10.196000000	-24.762507456	4.797584131
	284	1	-8.157000000	-23.900788820	6.645545709
	285	1	-8.157000000	-22.914545878	3.935865496
	286	2	-6.117000000	-22.052827242	5.783827074
	287	1	-6.117000000	-24.762507456	4.797584131
	288	2	-4.078000000	-23.900788820	6.645545709
	289	1	-4.078000000	-22.914545878	3.935865496
	290	1	-2.039000000	-22.052827242	5.783827074
	291	1	-2.039000000	-24.762507456	4.797584131
	292	1	0.000000000	-23.900788820	6.645545709
	293	2	0.000000000	-22.914545878	3.935865496
	294	1	2.039000000	-22.052827242	5.783827074
	295	1	2.039000000	-24.762507456	4.797584131
	296	2	4.078000000	-23.900788820	6.645545709
	297	2	4.078000000	-22.914545878	3.935865496
	298	1	6.117000000	-22.052827242	5.783827074
	299	2	6.117000000	-24.762507456	4.797584131
	300	2	8.157000000	-23.900788820	6.645545709
	301	2	8.157000000	-22.914545878	3.935865496
	302	1	10.196000000	-22.052827242	5.783827074
	303	2	10.196000000	-24.762507456	4.797584131
	304	1	12.235000000	-23.900788820	6.645545709
	305	2	12.235000000	-22.914545878	3.935865496
	306	2	14.274000000	-22.052827242	5.783827074
	307	1	14.274000000	-24.762507456	4.797584131
	308	2	16.313000000	-23.900788820	6.645545709
	309	2	16.313000000	-22.914545878	3.935865496
	310	1	18.352000000	-22.052827242	5.783827074
	311	2	-16.313000000	-24.638405768	0.239036032
	312	2	-14.274000000	-23.776687132	2.086997610
	313	2	-12.235000000	-25.624648710	2.948716246
	314	1	-12.235000000	-24.638405768	0.239036032
	315	2	-10.196000000	-23.776687132	2.086997610
	316	1	-10.196000000	-26.486367345	1.100754668
	317	2	-8.157000000	-25.624648710	2.948716246
	318	2	-8.157000000	-24.638405768	0.239036032
	319	2	-6.117000000	-23.776687132	2.086997610
	320	1	-6.117000000	-26.486367345	1.100754668
	321	1	-4.078000000	-25.624648710	2.948716246
	322	2	-4.078000000	-24.638405768	0.239036032
	323	1	-2.039000000	-23.776687132	2.086997610
	324	2	-2.039000000	-26.486367345	1.100754668
	325	2	0.000000000	-25.624648710	2.948716246
	326	2	0.000000000	-24.638405768	0.239036032
	327	1	2.039000000	-23.776687132	2.086997610
	328	1	2.039000000	-26.486367345	1.100754668
	329	1	4.078000000	-25.624648710	2.948716246
	330	1	4.078000000	-24.638405768	0.239036032
	331	2	6.117000000	-23.776687132	2.086997610
	332	2	6.117000000	-26.486367345	1.100754668
	333	2	8.157000000	-25.624648710	2.948716246
	334	2	8.157000000	-24.638405768	0.239036032
	335	1	10.196000000	-23.776687132	2.086997610
	336	2	10.196000000	-26.486367345	1.100754668
	337	1	12.235000000	-25.624648710	2.948716246
	338	2	12.235000000	-24.638405768	0.239036032
	339	1	14.274000000	-23.776687132	2.086997610
	340	2	16.313000000	-24.638405768	0.239036032
	341	1	-14.274000000	-25.500124403	-1.608925545
	342	1	-12.235000000	-27.348085981	-0.747206910
	343	2	-12.235000000	-26.361843039	-3.456887123
	344	2	-10.196000000	-25.500124403	-1.608925545
	345	1	-8.157000000	-27.348085981	-0.747206910
	346	1	-8.157000000	-26.361843039	-3.456887123
	347	1	-6.117000000	-25.500124403	-1.608925545
	348	2	-6.117000000	-28.209804617	-2.595168487
	349	2	-4.078000000	-27.348085981	-0.747206910
	350	1	-4.078000000	-26.361843039	-3.456887123
	351	2	-2.039000000	-25.500124403	-1.608925545
	352	1	-2.039000000	-28.209804617	-2.595168487
	353	2	0.000000000	-27.348085981	-0.747206910
	354	1	0.000000000	-26.361843039	-3.456887123
	355	2	2.039000000	-25.500124403	-1.608925545
	356	1	2.039000000	-28.209804617	-2.595168487
	357	2	4.078000000	-27.348085981	-0.747206910
	358	2	4.078000000	-26.361843039	-3.456887123
	359	2	6.117000000	-25.500124403	-1.608925545
	360	2	6.117000000	-28.209804617	-2.595168487
	361	1	8.157000000	-27.348085981	-0.747206910
	362	2	8.157000000	-26.361843039	-3.456887123
	363	2	10.196000000	-25.500124403	-1.608925545
	364	2	12.235000000	-27.348085981	-0.747206910
	365	2	12.235000000	-26.361843039	-3.456887123
	366	2	14.274000000	-25.500124403	-1.608925545
	367	1	-10.196000000	-27.223561675	-5.304848701
	368	2	-6.117000000	-27.223561675	-5.304848701
	369	2	-4.078000000	-29.071523253	-4.443130065
	370	2	-4.078000000	-28.085280310	-7.152810279
	371	2	-2.039000000	-27.223561675	-5.304848701
	372	2	0.000000000	-29.071523253	-4.443130065
	373	1	0.000000000	-28.085280310	-7.152810279
	374	1	2.039000000	-27.223561675	-5.304848701
	375	1	4.078000000	-29.071523253	-4.443130065
	376	2	4.078000000	-28.085280310	-7.152810279
	377	2	6.117000000	-27.223561675	-5.304848701
	378	1	10.196000000	-27.223561675	-5.304848701
	379	1	-4.078000000	-7.152810279	28.085280310
	380	1	0.000000000	-7.152810279	28.085280310
	381	1	4.078000000	-7.152810279	28.085280310
	382	2	-12.235000000	-8.876670168	24.388450847
	383	1	-10.196000000	-8.014951533	26.236412425
	384	1	-10.196000000	-10.724631746	25.250169483
	385	2	-8.157000000	-9.862913110	27.098131061
	386	2	-8.157000000	-8.876670168	24.388450847
	387	2	-6.117000000	-8.014951533	26.236412425
	388	2	-6.117000000	-10.724631746	25.250169483
	389	1	-4.078000000	-9.862913110	27.098131061
	390	2	-4.078000000	-8.876670168	24.388450847
	391	1	-2.039000000	-8.014951533	26.236412425
	392	2	-2.039000000	-10.724631746	25.250169483
	393	2	0.000000000	-9.862913110	27.098131061
	394	2	0.000000000	-8.876670168	24.388450847
	395	2	2.039000000	-8.014951533	26.236412425
	396	1	2.039000000	-10.724631746	25.250169483
	397	1	4.078000000	-9.862913110	27.098131061
	398	2	4.078000000	-8.876670168	24.388450847
	399	2	6.117000000	-8.014951533	26.236412425
	400	1	6.117000000	-10.724631746	25.250169483
	401	2	8.157000000	-9.862913110	27.098131061
	402	1	8.157000000	-8.876670168	24.388450847
	403	1	10.196000000	-8.014951533	26.236412425
	404	1	10.196000000	-10.724631746	25.250169483
	405	1	12.235000000	-8.876670168	24.388450847
	406	1	-16.313000000	-10.600107440	20.692527692
	407	2	-14.274000000	-9.738388804	22.540489269
	408	2	-14.274000000	-12.448069017	21.554246327
	409	2	-12.235000000	-11.586350382	23.402207905
	410	1	-12.235000000	-10.600107440	20.692527692
	411	1	-10.196000000	-9.738388804	22.540489269
	412	2	-10.196000000	-12.448069017	21.554246327
	413	1	-8.157000000	-11.586350382	23.402207905
	414	1	-8.157000000	-10.600107440	20.692527692
	415	2	-6.117000000	-9.738388804	22.540489269
	416	2	-6.117000000	-12.448069017	21.554246327
	417	2	-4.078000000	-11.586350382	23.402207905
	418	1	-4.078000000	-10.600107440	20.692527692
	419	2	-2.039000000	-9.738388804	22.540489269
	420	2	-2.039000000	-12.448069017	21.554246327
	421	1	0.000000000	-11.586350382	23.402207905
	422	1	0.000000000	-10.600107440	20.692527692
	423	1	2.039000000	-9.738388804	22.540489269
	424	2	2.039000000	-12.448069017	21.554246327
	425	2	4.078000000	-11.586350382	23.402207905
	426	2	4.078000000	-10.600107440	20.692527692
	427	1	6.117000000	-9.738388804	22.540489269
	428	2	6.117000000	-12.448069017	21.554246327
	429	2	8.157000000	-11.586350382	23.402207905
	430	1	8.157000000	-10.600107440	20.692527692
	431	1	10.196000000	-9.738388804	22.540489269
	432	2	10.196000000	-12.448069017	21.554246327
	433	2	12.235000000	-11.586350382	23.402207905
	434	1	12.235000000	-10.600107440	20.692527692
	435	2	14.274000000	-9.738388804	22.540489269
	436	2	14.274000000	-12.448069017	21.554246327
	437	1	16.313000000	-10.600107440	20.692527692
	438	1	-20.391000000	-12.323544711	16.996604536
	439	1	-18.352000000	-11.461826075	18.844566114
	440	1	-18.352000000	-14.171506289	17.858323172
	441	2	-16.313000000	-13.309787653	19.706284750
	442	1	-16.313000000	-12.323544711	16.996604536
	443	2	-14.274000000	-11.461826075	18.844566114
	444	2	-14.274000000	-14.171506289	17.858323172
	445	2	-12.235000000	-13.309787653	19.706284750
	446	1	-12.235000000	-12.323544711	16.996604536
	447	1	-10.196000000	-11.461826075	18.844566114
	448	2	-10.196000000	-14.171506289	17.858323172
	449	1	-8.157000000	-13.309787653	19.706284750
	450	1	-8.157000000	-12.323544711	16.996604536
	451	2	-6.117000000	-11.461826075	18.844566114
	452	2	-6.117000000	-14.171506289	17.858323172
	453	1	-4.078000000	-13.309787653	19.706284750
	454	1	-4.078000000	-12.323544711	16.996604536
	455	2	-2.039000000	-11.461826075	18.844566114
	456	1	-2.039000000	-14.171506289	17.858323172
	457	1	0.000000000	-13.309787653	19.706284750
	458	1	0.000000000	-12.323544711	16.996604536
	459	1	2.039000000	-11.461826075	18.844566114
	460	2	2.039000000	-14.171506289	17.858323172
	461	1	4.078000000	-13.309787653	19.706284750
	462	1	4.078000000	-12.323544711	16.996604536
	463	2	6.117000000	-11.461826075	18.844566114
	464	2	6.117000000	-14.171506289	17.858323172
	465	2	8.157000000	-13.309787653	19.706284750
	466	1	8.157000000	-12.323544711	16.996604536
	467	1	10.196000000	-11.461826075	18.844566114
	468	2	10.196000000	-14.171506289	17.858323172
	469	2	12.235000000	-13.309787653	19.706284750
	470	2	12.235000000	-12.323544711	16.996604536
	471	2	14.274000000	-11.461826075	18.844566114
	472	1	14.274000000	-14.171506289	17.858323172
	473	2	16.313000000	-13.309787653	19.706284750
	474	1	16.313000000	-12.323544711	16.996604536
	475	2	18.352000000	-11.461826075	18.844566114
	476	2	18.352000000	-14.171506289	17.858323172
	477	1	20.391000000	-12.323544711	16.996604536
	478	1	-20.391000000	-15.033224924	16.010361594
	479	1	-20.391000000	-14.047404601	13.299775073
	480	2	-18.352000000	-13.185263347	15.148642958
	481	1	-18.352000000	-15.895366178	14.161493708
	482	2	-16.313000000	-15.033224924	16.010361594
	483	2	-16.313000000	-14.047404601	13.299775073
	484	2	-14.274000000	-13.185263347	15.148642958
	485	1	-14.274000000	-15.895366178	14.161493708
	486	1	-12.235000000	-15.033224924	16.010361594
	487	1	-12.235000000	-14.047404601	13.299775073
	488	2	-10.196000000	-13.185263347	15.148642958
	489	2	-10.196000000	-15.895366178	14.161493708
	490	2	-8.157000000	-15.033224924	16.010361594
	491	1	-8.157000000	-14.047404601	13.299775073
	492	1	-6.117000000	-13.185263347	15.148642958
	493	2	-6.117000000	-15.895366178	14.161493708
	494	1	-4.078000000	-15.033224924	16.010361594
	495	1	-4.078000000	-14.047404601	13.299775073
	496	2	-2.039000000	-13.185263347	15.148642958
	497	1	-2.039000000	-15.895366178	14.161493708
	498	2	0.000000000	-15.033224924	16.010361594
	499	2	0.000000000	-14.047404601	13.299775073
	500	1	2.039000000	-13.185263347	15.148642958
	501	2	2.039000000	-15.895366178	14.161493708
	502	1	4.078000000	-15.033224924	16.010361594
	503	2	4.078000000	-14.047404601	13.299775073
	504	1	6.117000000	-13.185263347	15.148642958
	505	1	6.117000000	-15.895366178	14.161493708
	506	1	8.157000000	-15.033224924	16.010361594
	507	2	8.157000000	-14.047404601	13.299775073
	508	1	10.196000000	-13.185263347	15.148642958
	509	1	10.196000000	-15.895366178	14.161493708
	510	1	12.235000000	-15.033224924	16.010361594
	511	1	12.235000000	-14.047404601	13.299775073
	512	1	14.274000000	-13.185263347	15.148642958
	513	2	14.274000000	-15.895366178	14.161493708
	514	1	16.313000000	-15.033224924	16.010361594
	515	2	16.313000000	-14.047404601	13.299775073
	516	2	18.352000000	-13.185263347	15.148642958
	517	1	18.352000000	-15.895366178	14.161493708
	518	1	20.391000000	-15.033224924	16.010361594
	519	2	20.391000000	-14.047404601	13.299775073
	520	1	-22.431000000	-14.909123236	11.451813495
	521	2	-20.391000000	-16.757084814	12.313532131
	522	1	-20.391000000	-15.770841872	9.603851917
	523	1	-18.352000000	-14.909123236	11.451813495
	524	1	-18.352000000	-17.618803450	10.465570553
	525	2	-16.313000000	-16.757084814	12.313532131
	526	2	-16.313000000	-15.770841872	9.603851917
	527	2	-14.274000000	-14.909123236	11.451813495
	528	2	-14.274000000	-17.618803450	10.465570553
	529	2	-12.235000000	-16.757084814	12.313532131
	530	2	-12.235000000	-15.770841872	9.603851917
	531	2	-10.196000000	-14.909123236	11.451813495
	532	1	-10.196000000	-17.618803450	10.465570553
	533	1	-8.157000000	-16.757084814	12.313532131
	534	1	-8.157000000	-15.770841872	9.603851917
	535	1	-6.117000000	-14.909123236	11.451813495
	536	1	-6.117000000	-17.618803450	10.465570553
	537	2	-4.078000000	-16.757084814	12.313532131
	538	1	-4.078000000	-15.770841872	9.603851917
	539	1	-2.039000000	-14.909123236	11.451813495
	540	1	-2.039000000	-17.618803450	10.465570553
	541	1	0.000000000	-16.757084814	12.313532131
	542	1	0.000000000	-15.770841872	9.603851917
	543	2	2.039000000	-14.909123236	11.451813495
	544	1	2.039000000	-17.618803450	10.465570553
	545	1	4.078000000	-16.757084814	12.313532131
	546	2	4.078000000	-15.770841872	9.603851917
	547	2	6.117000000	-14.909123236	11.451813495
	548	2	6.117000000	-17.618803450	10.465570553
	549	1	8.157000000	-16.757084814	12.313532131
	550	1	8.157000000	-15.770841872	9.603851917
	551	2	10.196000000	-14.909123236	11.451813495
	552	1	10.196000000	-17.618803450	10.465570553
	553	2	12.235000000	-16.757084814	12.313532131
	554	1	12.235000000	-15.770841872	9.603851917
	555	2	14.274000000	-14.909123236	11.451813495
	556	1	14.274000000	-17.618803450	10.465570553
	557	1	16.313000000	-16.757084814	12.313532131
	558	1	16.313000000	-15.770841872	9.603851917
	559	2	18.352000000	-14.909123236	11.451813495
	560	1	18.352000000	-17.618803450	10.465570553
	561	1	20.391000000	-16.757084814	12.313532131
	562	2	20.391000000	-15.770841872	9.603851917
	563	1	22.431000000	-14.909123236	11.451813495
	564	1	-22.431000000	-16.632560508	7.755890339
	565	1	-20.391000000	-18.480522085	8.617608975
	566	2	-20.391000000	-17.494279143	5.907928762
	567	1	-18.352000000	-16.632560508	7.755890339
	568	2	-18.352000000	-19.342240721	6.769647397
	569	1	-16.313000000	-18.480522085	8.617608975
	570	1	-16.313000000	-17.494279143	5.907928762
	571	2	-14.274000000	-16.632560508	7.755890339
	572	1	-14.274000000	-19.342240721	6.769647397
	573	2	-12.235000000	-18.480522085	8.617608975
	574	1	-12.235000000	-17.494279143	5.907928762
	575	2	-10.196000000	-16.632560508	7.755890339
	576	2	-10.196000000	-19.342240721	6.769647397
	577	1	-8.157000000	-18.480522085	8.617608975
	578	1	-8.157000000	-17.494279143	5.907928762
	579	1	-6.117000000	-16.632560508	7.755890339
	580	1	-6.117000000	-19.342240721	6.769647397
	581	1	-4.078000000	-18.480522085	8.617608975
	582	1	-4.078000000	-17.494279143	5.907928762
	583	1	-2.039000000	-16.632560508	7.755890339
	584	1	-2.039000000	-19.342240721	6.769647397
	585	2	0.000000000	-18.480522085	8.617608975
	586	1	0.000000000	-17.494279143	5.907928762
	587	2	2.039000000	-16.632560508	7.755890339
	588	1	2.039000000	-19.342240721	6.769647397
	589	2	4.078000000	-18.480522085	8.617608975
	590	2	4.078000000	-17.494279143	5.907928762
	591	1	6.117000000	-16.632560508	7.755890339
	592	2	6.117000000	-19.342240721	6.769647397
	593	1	8.157000000	-18.480522085	8.617608975
	594	2	8.157000000	-17.494279143	5.907928762
	595	1	10.196000000	-16.632560508	7.755890339
	596	2	10.196000000	-19.342240721	6.769647397
	597	1	12.235000000	-18.480522085	8.617608975
	598	1	12.235000000	-17.494279143	5.907928762
	599	2	14.274000000	-16.632560508	7.755890339
	600	1	14.274000000	-19.342240721	6.769647397
	601	2	16.313000000	-18.480522085	8.617608975
	602	1	16.313000000	-17.494279143	5.907928762
	603	1	18.352000000	-16.632560508	7.755890339
	604	2	18.352000000	-19.342240721	6.769647397
	605	2	20.391000000	-18.480522085	8.617608975
	606	1	20.391000000	-17.494279143	5.907928762
	607	1	22.431000000	-16.632560508	7.755890339
	608	2	-22.431000000	-18.355997779	4.059967184
	609	1	-20.391000000	-20.203959357	4.921685820
	610	1	-20.391000000	-19.217716415	2.212005606
	611	2	-18.352000000	-18.355997779	4.059967184
	612	2	-18.352000000	-21.065677993	3.073724242
	613	2	-16.313000000	-20.203959357	4.921685820
	614	1	-16.313000000	-19.217716415	2.212005606
	615	2	-14.274000000	-18.355997779	4.059967184
	616	2	-14.274000000	-21.065677993	3.073724242
	617	1	-12.235000000	-20.203959357	4.921685820
	618	1	-12.235000000	-19.217716415	2.212005606
	619	1	-10.196000000	-18.355997779	4.059967184
	620	2	-10.196000000	-21.065677993	3.073724242
	621	2	-8.157000000	-20.203959357	4.921685820
	622	1	-8.157000000	-19.217716415	2.212005606
	623	1	-6.117000000	-18.355997779	4.059967184
	624	1	-6.117000000	-21.065677993	3.073724242
	625	1	-4.078000000	-20.203959357	4.921685820
	626	2	-4.078000000	-19.217716415	2.212005606
	627	2	-2.039000000	-18.355997779	4.059967184
	628	2	-2.039000000	-21.065677993	3.073724242
	629	2	0.000000000	-20.203959357	4.921685820
	630	2	0.000000000	-19.217716415	2.212005606
	631	2	2.039000000	-18.355997779	4.059967184
	632	1	2.039000000	-21.065677993	3.073724242
	633	2	4.078000000	-20.203959357	4.921685820
	634	2	4.078000000	-19.217716415	2.212005606
	635	2	6.117000000	-18.355997779	4.059967184
	636	1	6.117000000	-21.065677993	3.073724242
	637	1	8.157000000	-20.203959357	4.921685820
	638	1	8.157000000	-19.217716415	2.212005606
	639	1	10.196000000	-18.355997779	4.059967184
	640	1	10.196000000	-21.065677993	3.073724242
	641	1	12.235000000	-20.203959357	4.921685820
	642	2	12.235000000	-19.217716415	2.212005606
	643	1	14.274000000	-18.355997779	4.059967184
	644	2	14.274000000	-21.065677993	3.073724242