
        6699 atoms 
           2 atom types 
  -60.0000000       60.000000     xlo xhi 
  -60.0000000       60.000000     ylo yhi 
  -60.0000000       60.000000     zlo zhi 
 Atoms 

	1	1	0.000000000	0.000000000	0.000000000
	2	2	0.000000000	-1.853530430	2.208951549
	3	1	2.039000000	-2.031240989	0.177710559
	4	1	2.039000000	0.177710559	2.031240989
	5	1	-8.157000000	25.519485299	-12.467612726
	6	2	-6.117000000	25.341774739	-14.498853716
	7	2	-4.078000000	25.519485299	-12.467612726
	8	2	-2.039000000	25.341774739	-14.498853716
	9	2	0.000000000	25.519485299	-12.467612726
	10	1	2.039000000	25.341774739	-14.498853716
	11	1	4.078000000	25.519485299	-12.467612726
	12	1	6.117000000	25.341774739	-14.498853716
	13	1	8.157000000	25.519485299	-12.467612726
	14	1	-12.235000000	25.874993573	-8.404134553
	15	1	-10.196000000	25.697195858	-10.436371737
	16	1	-8.157000000	25.874993573	-8.404134553
	17	1	-6.117000000	25.697195858	-10.436371737
	18	2	-6.117000000	27.906234563	-8.581845112
	19	1	-4.078000000	27.728436848	-10.614082296
	20	1	-4.078000000	25.874993573	-8.404134553
	21	2	-2.039000000	25.697195858	-10.436371737
	22	2	-2.039000000	27.906234563	-8.581845112
	23	2	0.000000000	27.728436848	-10.614082296
	24	2	0.000000000	25.874993573	-8.404134553
	25	1	2.039000000	25.697195858	-10.436371737
	26	1	2.039000000	27.906234563	-8.581845112
	27	2	4.078000000	27.728436848	-10.614082296
	28	2	4.078000000	25.874993573	-8.404134553
	29	1	6.117000000	25.697195858	-10.436371737
	30	1	6.117000000	27.906234563	-8.581845112
	31	2	8.157000000	25.874993573	-8.404134553
	32	1	10.196000000	25.697195858	-10.436371737
	33	2	12.235000000	25.874993573	-8.404134553
	34	2	-12.235000000	26.230414692	-4.341652574
	35	2	-10.196000000	26.052704133	-6.372893563
	36	2	-8.157000000	28.083945122	-6.550604123
	37	1	-8.157000000	26.230414692	-4.341652574
	38	2	-6.117000000	26.052704133	-6.372893563
	39	1	-6.117000000	28.261655682	-4.519363133
	40	1	-4.078000000	28.083945122	-6.550604123
	41	1	-4.078000000	26.230414692	-4.341652574
	42	2	-2.039000000	26.052704133	-6.372893563
	43	2	-2.039000000	28.261655682	-4.519363133
	44	1	0.000000000	28.083945122	-6.550604123
	45	2	0.000000000	26.230414692	-4.341652574
	46	2	2.039000000	26.052704133	-6.372893563
	47	1	2.039000000	28.261655682	-4.519363133
	48	2	4.078000000	28.083945122	-6.550604123
	49	2	4.078000000	26.230414692	-4.341652574
	50	2	6.117000000	26.052704133	-6.372893563
	51	2	6.117000000	28.261655682	-4.519363133
	52	1	8.157000000	28.083945122	-6.550604123
	53	1	8.157000000	26.230414692	-4.341652574
	54	1	10.196000000	26.052704133	-6.372893563
	55	2	12.235000000	26.230414692	-4.341652574
	56	1	-12.235000000	26.585835811	-0.279170595
	57	1	-10.196000000	26.408125252	-2.310411584
	58	2	-8.157000000	28.439366241	-2.488122144
	59	2	-8.157000000	26.585835811	-0.279170595
	60	1	-6.117000000	26.408125252	-2.310411584
	61	1	-6.117000000	28.617076801	-0.456881155
	62	1	-4.078000000	28.439366241	-2.488122144
	63	1	-4.078000000	26.585835811	-0.279170595
	64	1	-2.039000000	26.408125252	-2.310411584
	65	2	-2.039000000	28.617076801	-0.456881155
	66	2	0.000000000	28.439366241	-2.488122144
	67	2	0.000000000	26.585835811	-0.279170595
	68	2	2.039000000	26.408125252	-2.310411584
	69	1	2.039000000	28.617076801	-0.456881155
	70	2	4.078000000	28.439366241	-2.488122144
	71	1	4.078000000	26.585835811	-0.279170595
	72	2	6.117000000	26.408125252	-2.310411584
	73	1	6.117000000	28.617076801	-0.456881155
	74	2	8.157000000	28.439366241	-2.488122144
	75	2	8.157000000	26.585835811	-0.279170595
	76	2	10.196000000	26.408125252	-2.310411584
	77	2	12.235000000	26.585835811	-0.279170595
	78	1	-12.235000000	26.941256930	3.783311384
	79	2	-10.196000000	26.763546371	1.752070394
	80	2	-8.157000000	28.794787360	1.574359835
	81	2	-8.157000000	26.941256930	3.783311384
	82	1	-6.117000000	26.763546371	1.752070394
	83	2	-6.117000000	28.972497920	3.605600824
	84	1	-4.078000000	28.794787360	1.574359835
	85	2	-4.078000000	26.941256930	3.783311384
	86	1	-2.039000000	26.763546371	1.752070394
	87	2	-2.039000000	28.972497920	3.605600824
	88	1	0.000000000	28.794787360	1.574359835
	89	2	0.000000000	26.941256930	3.783311384
	90	1	2.039000000	26.763546371	1.752070394
	91	2	2.039000000	28.972497920	3.605600824
	92	1	4.078000000	28.794787360	1.574359835
	93	2	4.078000000	26.941256930	3.783311384
	94	2	6.117000000	26.763546371	1.752070394
	95	2	6.117000000	28.972497920	3.605600824
	96	2	8.157000000	28.794787360	1.574359835
	97	2	8.157000000	26.941256930	3.783311384
	98	2	10.196000000	26.763546371	1.752070394
	99	2	12.235000000	26.941256930	3.783311384
	100	2	-10.196000000	27.119054645	5.815548568
	101	2	-8.157000000	27.296765205	7.846789557
	102	2	-6.117000000	27.119054645	5.815548568
	103	1	-4.078000000	29.150295635	5.637838008
	104	2	-4.078000000	27.296765205	7.846789557
	105	1	-2.039000000	27.119054645	5.815548568
	106	2	0.000000000	29.150295635	5.637838008
	107	1	0.000000000	27.296765205	7.846789557
	108	1	2.039000000	27.119054645	5.815548568
	109	1	4.078000000	29.150295635	5.637838008
	110	2	4.078000000	27.296765205	7.846789557
	111	2	6.117000000	27.119054645	5.815548568
	112	2	8.157000000	27.296765205	7.846789557
	113	2	10.196000000	27.119054645	5.815548568
	114	2	-6.117000000	27.474475764	9.878030547
	115	2	-2.039000000	27.474475764	9.878030547
	116	1	2.039000000	27.474475764	9.878030547
	117	1	6.117000000	27.474475764	9.878030547
	118	1	-4.078000000	20.746161082	-20.237155565
	119	2	0.000000000	20.746161082	-20.237155565
	120	1	4.078000000	20.746161082	-20.237155565
	121	1	-12.235000000	21.101582201	-16.174673586
	122	2	-10.196000000	20.923871641	-18.205914576
	123	1	-8.157000000	21.101582201	-16.174673586
	124	2	-6.117000000	20.923871641	-18.205914576
	125	2	-6.117000000	23.132823190	-16.352384146
	126	1	-4.078000000	22.955112631	-18.383625135
	127	2	-4.078000000	21.101582201	-16.174673586
	128	2	-2.039000000	20.923871641	-18.205914576
	129	2	-2.039000000	23.132823190	-16.352384146
	130	1	0.000000000	22.955112631	-18.383625135
	131	1	0.000000000	21.101582201	-16.174673586
	132	1	2.039000000	20.923871641	-18.205914576
	133	1	2.039000000	23.132823190	-16.352384146
	134	2	4.078000000	22.955112631	-18.383625135
	135	1	4.078000000	21.101582201	-16.174673586
	136	2	6.117000000	20.923871641	-18.205914576
	137	1	6.117000000	23.132823190	-16.352384146
	138	1	8.157000000	21.101582201	-16.174673586
	139	2	10.196000000	20.923871641	-18.205914576
	140	1	12.235000000	21.101582201	-16.174673586
	141	2	-16.313000000	21.457003320	-12.112191607
	142	2	-14.274000000	21.279292760	-14.143432597
	143	2	-12.235000000	23.310533750	-14.321143156
	144	1	-12.235000000	21.457003320	-12.112191607
	145	1	-10.196000000	21.279292760	-14.143432597
	146	2	-10.196000000	23.488244309	-12.289902167
	147	1	-8.157000000	23.310533750	-14.321143156
	148	2	-8.157000000	21.457003320	-12.112191607
	149	1	-6.117000000	21.279292760	-14.143432597
	150	1	-6.117000000	23.488244309	-12.289902167
	151	1	-4.078000000	23.310533750	-14.321143156
	152	2	-4.078000000	21.457003320	-12.112191607
	153	1	-2.039000000	21.279292760	-14.143432597
	154	1	-2.039000000	23.488244309	-12.289902167
	155	1	0.000000000	23.310533750	-14.321143156
	156	1	0.000000000	21.457003320	-12.112191607
	157	1	2.039000000	21.279292760	-14.143432597
	158	1	2.039000000	23.488244309	-12.289902167
	159	2	4.078000000	23.310533750	-14.321143156
	160	1	4.078000000	21.457003320	-12.112191607
	161	1	6.117000000	21.279292760	-14.143432597
	162	1	6.117000000	23.488244309	-12.289902167
	163	1	8.157000000	23.310533750	-14.321143156
	164	2	8.157000000	21.457003320	-12.112191607
	165	1	10.196000000	21.279292760	-14.143432597
	166	2	10.196000000	23.488244309	-12.289902167
	167	1	12.235000000	23.310533750	-14.321143156
	168	1	12.235000000	21.457003320	-12.112191607
	169	1	14.274000000	21.279292760	-14.143432597
	170	1	16.313000000	21.457003320	-12.112191607
	171	1	-16.313000000	21.812511595	-8.048713434
	172	1	-14.274000000	21.634713879	-10.080950618
	173	2	-14.274000000	23.843752584	-8.226423993
	174	1	-12.235000000	23.665954869	-10.258661177
	175	1	-12.235000000	21.812511595	-8.048713434
	176	1	-10.196000000	21.634713879	-10.080950618
	177	2	-10.196000000	23.843752584	-8.226423993
	178	2	-8.157000000	23.665954869	-10.258661177
	179	1	-8.157000000	21.812511595	-8.048713434
	180	1	-6.117000000	21.634713879	-10.080950618
	181	2	-6.117000000	23.843752584	-8.226423993
	182	1	-4.078000000	23.665954869	-10.258661177
	183	2	-4.078000000	21.812511595	-8.048713434
	184	1	-2.039000000	21.634713879	-10.080950618
	185	2	-2.039000000	23.843752584	-8.226423993
	186	1	0.000000000	23.665954869	-10.258661177
	187	1	0.000000000	21.812511595	-8.048713434
	188	1	2.039000000	21.634713879	-10.080950618
	189	2	2.039000000	23.843752584	-8.226423993
	190	1	4.078000000	23.665954869	-10.258661177
	191	1	4.078000000	21.812511595	-8.048713434
	192	1	6.117000000	21.634713879	-10.080950618
	193	1	6.117000000	23.843752584	-8.226423993
	194	1	8.157000000	23.665954869	-10.258661177
	195	2	8.157000000	21.812511595	-8.048713434
	196	2	10.196000000	21.634713879	-10.080950618
	197	2	10.196000000	23.843752584	-8.226423993
	198	1	12.235000000	23.665954869	-10.258661177
	199	2	12.235000000	21.812511595	-8.048713434
	200	1	14.274000000	21.634713879	-10.080950618
	201	1	14.274000000	23.843752584	-8.226423993
	202	2	16.313000000	21.812511595	-8.048713434
	203	2	-18.352000000	21.990222154	-6.017472444
	204	2	-16.313000000	24.021463143	-6.195183004
	205	1	-16.313000000	22.167932713	-3.986231455
	206	2	-14.274000000	21.990222154	-6.017472444
	207	1	-14.274000000	24.199173703	-4.163942014
	208	2	-12.235000000	24.021463143	-6.195183004
	209	2	-12.235000000	22.167932713	-3.986231455
	210	2	-10.196000000	21.990222154	-6.017472444
	211	1	-10.196000000	24.199173703	-4.163942014
	212	1	-8.157000000	24.021463143	-6.195183004
	213	2	-8.157000000	22.167932713	-3.986231455
	214	2	-6.117000000	21.990222154	-6.017472444
	215	2	-6.117000000	24.199173703	-4.163942014
	216	1	-4.078000000	24.021463143	-6.195183004
	217	2	-4.078000000	22.167932713	-3.986231455
	218	2	-2.039000000	21.990222154	-6.017472444
	219	1	-2.039000000	24.199173703	-4.163942014
	220	1	0.000000000	24.021463143	-6.195183004
	221	1	0.000000000	22.167932713	-3.986231455
	222	1	2.039000000	21.990222154	-6.017472444
	223	2	2.039000000	24.199173703	-4.163942014
	224	1	4.078000000	24.021463143	-6.195183004
	225	1	4.078000000	22.167932713	-3.986231455
	226	2	6.117000000	21.990222154	-6.017472444
	227	1	6.117000000	24.199173703	-4.163942014
	228	1	8.157000000	24.021463143	-6.195183004
	229	1	8.157000000	22.167932713	-3.986231455
	230	1	10.196000000	21.990222154	-6.017472444
	231	2	10.196000000	24.199173703	-4.163942014
	232	1	12.235000000	24.021463143	-6.195183004
	233	2	12.235000000	22.167932713	-3.986231455
	234	1	14.274000000	21.990222154	-6.017472444
	235	2	14.274000000	24.199173703	-4.163942014
	236	2	16.313000000	24.021463143	-6.195183004
	237	2	16.313000000	22.167932713	-3.986231455
	238	2	18.352000000	21.990222154	-6.017472444
	239	2	-18.352000000	22.345643273	-1.954990466
	240	2	-16.313000000	24.376884262	-2.132701025
	241	1	-16.313000000	22.523353832	0.076250524
	242	2	-14.274000000	22.345643273	-1.954990466
	243	1	-14.274000000	24.554594822	-0.101460036
	244	2	-12.235000000	24.376884262	-2.132701025
	245	2	-12.235000000	22.523353832	0.076250524
	246	1	-10.196000000	22.345643273	-1.954990466
	247	1	-10.196000000	24.554594822	-0.101460036
	248	1	-8.157000000	24.376884262	-2.132701025
	249	2	-8.157000000	22.523353832	0.076250524
	250	2	-6.117000000	22.345643273	-1.954990466
	251	2	-6.117000000	24.554594822	-0.101460036
	252	1	-4.078000000	24.376884262	-2.132701025
	253	1	-4.078000000	22.523353832	0.076250524
	254	1	-2.039000000	22.345643273	-1.954990466
	255	1	-2.039000000	24.554594822	-0.101460036
	256	1	0.000000000	24.376884262	-2.132701025
	257	1	0.000000000	22.523353832	0.076250524
	258	2	2.039000000	22.345643273	-1.954990466
	259	1	2.039000000	24.554594822	-0.101460036
	260	1	4.078000000	24.376884262	-2.132701025
	261	2	4.078000000	22.523353832	0.076250524
	262	1	6.117000000	22.345643273	-1.954990466
	263	2	6.117000000	24.554594822	-0.101460036
	264	1	8.157000000	24.376884262	-2.132701025
	265	2	8.157000000	22.523353832	0.076250524
	266	1	10.196000000	22.345643273	-1.954990466
	267	2	10.196000000	24.554594822	-0.101460036
	268	1	12.235000000	24.376884262	-2.132701025
	269	2	12.235000000	22.523353832	0.076250524
	270	1	14.274000000	22.345643273	-1.954990466
	271	2	14.274000000	24.554594822	-0.101460036
	272	1	16.313000000	24.376884262	-2.132701025
	273	2	16.313000000	22.523353832	0.076250524
	274	2	18.352000000	22.345643273	-1.954990466
	275	2	-18.352000000	22.701064392	2.107491513
	276	1	-16.313000000	24.732305381	1.929780954
	277	2	-16.313000000	22.878774951	4.138732503
	278	1	-14.274000000	22.701064392	2.107491513
	279	1	-14.274000000	24.910015941	3.961021943
	280	1	-12.235000000	24.732305381	1.929780954
	281	1	-12.235000000	22.878774951	4.138732503
	282	1	-10.196000000	22.701064392	2.107491513
	283	1	-10.196000000	24.910015941	3.961021943
	284	1	-8.157000000	24.732305381	1.929780954
	285	1	-8.157000000	22.878774951	4.138732503
	286	2	-6.117000000	22.701064392	2.107491513
	287	1	-6.117000000	24.910015941	3.961021943
	288	2	-4.078000000	24.732305381	1.929780954
	289	1	-4.078000000	22.878774951	4.138732503
	290	1	-2.039000000	22.701064392	2.107491513
	291	1	-2.039000000	24.910015941	3.961021943
	292	1	0.000000000	24.732305381	1.929780954
	293	2	0.000000000	22.878774951	4.138732503
	294	1	2.039000000	22.701064392	2.107491513
	295	1	2.039000000	24.910015941	3.961021943
	296	2	4.078000000	24.732305381	1.929780954
	297	2	4.078000000	22.878774951	4.138732503
	298	1	6.117000000	22.701064392	2.107491513
	299	2	6.117000000	24.910015941	3.961021943
	300	2	8.157000000	24.732305381	1.929780954
	301	2	8.157000000	22.878774951	4.138732503
	302	1	10.196000000	22.701064392	2.107491513
	303	2	10.196000000	24.910015941	3.961021943
	304	1	12.235000000	24.732305381	1.929780954
	305	2	12.235000000	22.878774951	4.138732503
	306	2	14.274000000	22.701064392	2.107491513
	307	1	14.274000000	24.910015941	3.961021943
	308	2	16.313000000	24.732305381	1.929780954
	309	2	16.313000000	22.878774951	4.138732503
	310	1	18.352000000	22.701064392	2.107491513
	311	2	-16.313000000	23.234283226	8.202210676
	312	2	-14.274000000	23.056572666	6.170969687
	313	2	-12.235000000	25.087813656	5.993259127
	314	1	-12.235000000	23.234283226	8.202210676
	315	2	-10.196000000	23.056572666	6.170969687
	316	1	-10.196000000	25.265524215	8.024500117
	317	2	-8.157000000	25.087813656	5.993259127
	318	2	-8.157000000	23.234283226	8.202210676
	319	2	-6.117000000	23.056572666	6.170969687
	320	1	-6.117000000	25.265524215	8.024500117
	321	1	-4.078000000	25.087813656	5.993259127
	322	2	-4.078000000	23.234283226	8.202210676
	323	1	-2.039000000	23.056572666	6.170969687
	324	2	-2.039000000	25.265524215	8.024500117
	325	2	0.000000000	25.087813656	5.993259127
	326	2	0.000000000	23.234283226	8.202210676
	327	1	2.039000000	23.056572666	6.170969687
	328	1	2.039000000	25.265524215	8.024500117
	329	1	4.078000000	25.087813656	5.993259127
	330	1	4.078000000	23.234283226	8.202210676
	331	2	6.117000000	23.056572666	6.170969687
	332	2	6.117000000	25.265524215	8.024500117
	333	2	8.157000000	25.087813656	5.993259127
	334	2	8.157000000	23.234283226	8.202210676
	335	1	10.196000000	23.056572666	6.170969687
	336	2	10.196000000	25.265524215	8.024500117
	337	1	12.235000000	25.087813656	5.993259127
	338	2	12.235000000	23.234283226	8.202210676
	339	1	14.274000000	23.056572666	6.170969687
	340	2	16.313000000	23.234283226	8.202210676
	341	1	-14.274000000	23.411993785	10.233451666
	342	1	-12.235000000	25.443234775	10.055741106
	343	2	-12.235000000	23.589704345	12.264692655
	344	2	-10.196000000	23.411993785	10.233451666
	345	1	-8.157000000	25.443234775	10.055741106
	346	1	-8.157000000	23.589704345	12.264692655
	347	1	-6.117000000	23.411993785	10.233451666
	348	2	-6.117000000	25.620945334	12.086982096
	349	2	-4.078000000	25.443234775	10.055741106
	350	1	-4.078000000	23.589704345	12.264692655
	351	2	-2.039000000	23.411993785	10.233451666
	352	1	-2.039000000	25.620945334	12.086982096
	353	2	0.000000000	25.443234775	10.055741106
	354	1	0.000000000	23.589704345	12.264692655
	355	2	2.039000000	23.411993785	10.233451666
	356	1	2.039000000	25.620945334	12.086982096
	357	2	4.078000000	25.443234775	10.055741106
	358	2	4.078000000	23.589704345	12.264692655
	359	2	6.117000000	23.411993785	10.233451666
	360	2	6.117000000	25.620945334	12.086982096
	361	1	8.157000000	25.443234775	10.055741106
	362	2	8.157000000	23.589704345	12.264692655
	363	2	10.196000000	23.411993785	10.233451666
	364	2	12.235000000	25.443234775	10.055741106
	365	2	12.235000000	23.589704345	12.264692655
	366	2	14.274000000	23.411993785	10.233451666
	367	1	-10.196000000	23.767414904	14.295933644
	368	2	-6.117000000	23.767414904	14.295933644
	369	2	-4.078000000	25.798655894	14.118223085
	370	2	-4.078000000	23.945125464	16.327174634
	371	2	-2.039000000	23.767414904	14.295933644
	372	2	0.000000000	25.798655894	14.118223085
	373	1	0.000000000	23.945125464	16.327174634
	374	1	2.039000000	23.767414904	14.295933644
	375	1	4.078000000	25.798655894	14.118223085
	376	2	4.078000000	23.945125464	16.327174634
	377	2	6.117000000	23.767414904	14.295933644
	378	1	10.196000000	23.767414904	14.295933644
	379	1	-4.078000000	16.327174634	-23.945125464
	380	1	0.000000000	16.327174634	-23.945125464
	381	1	4.078000000	16.327174634	-23.945125464
	382	2	-12.235000000	16.682682908	-19.881647290
	383	1	-10.196000000	16.504972349	-21.912888280
	384	1	-10.196000000	18.713923898	-20.059357850
	385	2	-8.157000000	18.536213338	-22.090598839
	386	2	-8.157000000	16.682682908	-19.881647290
	387	2	-6.117000000	16.504972349	-21.912888280
	388	2	-6.117000000	18.713923898	-20.059357850
	389	1	-4.078000000	18.536213338	-22.090598839
	390	2	-4.078000000	16.682682908	-19.881647290
	391	1	-2.039000000	16.504972349	-21.912888280
	392	2	-2.039000000	18.713923898	-20.059357850
	393	2	0.000000000	18.536213338	-22.090598839
	394	2	0.000000000	16.682682908	-19.881647290
	395	2	2.039000000	16.504972349	-21.912888280
	396	1	2.039000000	18.713923898	-20.059357850
	397	1	4.078000000	18.536213338	-22.090598839
	398	2	4.078000000	16.682682908	-19.881647290
	399	2	6.117000000	16.504972349	-21.912888280
	400	1	6.117000000	18.713923898	-20.059357850
	401	2	8.157000000	18.536213338	-22.090598839
	402	1	8.157000000	16.682682908	-19.881647290
	403	1	10.196000000	16.504972349	-21.912888280
	404	1	10.196000000	18.713923898	-20.059357850
	405	1	12.235000000	16.682682908	-19.881647290
	406	1	-16.313000000	17.038104027	-15.819165311
	407	2	-14.274000000	16.860393468	-17.850406301
	408	2	-14.274000000	19.069345017	-15.996875871
	409	2	-12.235000000	18.891634457	-18.028116860
	410	1	-12.235000000	17.038104027	-15.819165311
	411	1	-10.196000000	16.860393468	-17.850406301
	412	2	-10.196000000	19.069345017	-15.996875871
	413	1	-8.157000000	18.891634457	-18.028116860
	414	1	-8.157000000	17.038104027	-15.819165311
	415	2	-6.117000000	16.860393468	-17.850406301
	416	2	-6.117000000	19.069345017	-15.996875871
	417	2	-4.078000000	18.891634457	-18.028116860
	418	1	-4.078000000	17.038104027	-15.819165311
	419	2	-2.039000000	16.860393468	-17.850406301
	420	2	-2.039000000	19.069345017	-15.996875871
	421	1	0.000000000	18.891634457	-18.028116860
	422	1	0.000000000	17.038104027	-15.819165311
	423	1	2.039000000	16.860393468	-17.850406301
	424	2	2.039000000	19.069345017	-15.996875871
	425	2	4.078000000	18.891634457	-18.028116860
	426	2	4.078000000	17.038104027	-15.819165311
	427	1	6.117000000	16.860393468	-17.850406301
	428	2	6.117000000	19.069345017	-15.996875871
	429	2	8.157000000	18.891634457	-18.028116860
	430	1	8.157000000	17.038104027	-15.819165311
	431	1	10.196000000	16.860393468	-17.850406301
	432	2	10.196000000	19.069345017	-15.996875871
	433	2	12.235000000	18.891634457	-18.028116860
	434	1	12.235000000	17.038104027	-15.819165311
	435	2	14.274000000	16.860393468	-17.850406301
	436	2	14.274000000	19.069345017	-15.996875871
	437	1	16.313000000	17.038104027	-15.819165311
	438	1	-20.391000000	17.393525146	-11.756683333
	439	1	-18.352000000	17.215814587	-13.787924322
	440	1	-18.352000000	19.424766136	-11.934393892
	441	2	-16.313000000	19.247055576	-13.965634882
	442	1	-16.313000000	17.393525146	-11.756683333
	443	2	-14.274000000	17.215814587	-13.787924322
	444	2	-14.274000000	19.424766136	-11.934393892
	445	2	-12.235000000	19.247055576	-13.965634882
	446	1	-12.235000000	17.393525146	-11.756683333
	447	1	-10.196000000	17.215814587	-13.787924322
	448	2	-10.196000000	19.424766136	-11.934393892
	449	1	-8.157000000	19.247055576	-13.965634882
	450	1	-8.157000000	17.393525146	-11.756683333
	451	2	-6.117000000	17.215814587	-13.787924322
	452	2	-6.117000000	19.424766136	-11.934393892
	453	1	-4.078000000	19.247055576	-13.965634882
	454	1	-4.078000000	17.393525146	-11.756683333
	455	2	-2.039000000	17.215814587	-13.787924322
	456	1	-2.039000000	19.424766136	-11.934393892
	457	1	0.000000000	19.247055576	-13.965634882
	458	1	0.000000000	17.393525146	-11.756683333
	459	1	2.039000000	17.215814587	-13.787924322
	460	2	2.039000000	19.424766136	-11.934393892
	461	1	4.078000000	19.247055576	-13.965634882
	462	1	4.078000000	17.393525146	-11.756683333
	463	2	6.117000000	17.215814587	-13.787924322
	464	2	6.117000000	19.424766136	-11.934393892
	465	2	8.157000000	19.247055576	-13.965634882
	466	1	8.157000000	17.393525146	-11.756683333
	467	1	10.196000000	17.215814587	-13.787924322
	468	2	10.196000000	19.424766136	-11.934393892
	469	2	12.235000000	19.247055576	-13.965634882
	470	2	12.235000000	17.393525146	-11.756683333
	471	2	14.274000000	17.215814587	-13.787924322
	472	1	14.274000000	19.424766136	-11.934393892
	473	2	16.313000000	19.247055576	-13.965634882
	474	1	16.313000000	17.393525146	-11.756683333
	475	2	18.352000000	17.215814587	-13.787924322
	476	2	18.352000000	19.424766136	-11.934393892
	477	1	20.391000000	17.393525146	-11.756683333
	478	1	-20.391000000	19.602476695	-9.903152903
	479	1	-20.391000000	17.749033421	-7.693205159
	480	2	-18.352000000	17.571235706	-9.725442343
	481	1	-18.352000000	19.780274410	-7.870915719
	482	2	-16.313000000	19.602476695	-9.903152903
	483	2	-16.313000000	17.749033421	-7.693205159
	484	2	-14.274000000	17.571235706	-9.725442343
	485	1	-14.274000000	19.780274410	-7.870915719
	486	1	-12.235000000	19.602476695	-9.903152903
	487	1	-12.235000000	17.749033421	-7.693205159
	488	2	-10.196000000	17.571235706	-9.725442343
	489	2	-10.196000000	19.780274410	-7.870915719
	490	2	-8.157000000	19.602476695	-9.903152903
	491	1	-8.157000000	17.749033421	-7.693205159
	492	1	-6.117000000	17.571235706	-9.725442343
	493	2	-6.117000000	19.780274410	-7.870915719
	494	1	-4.078000000	19.602476695	-9.903152903
	495	1	-4.078000000	17.749033421	-7.693205159
	496	2	-2.039000000	17.571235706	-9.725442343
	497	1	-2.039000000	19.780274410	-7.870915719
	498	2	0.000000000	19.602476695	-9.903152903
	499	2	0.000000000	17.749033421	-7.693205159
	500	1	2.039000000	17.571235706	-9.725442343
	501	2	2.039000000	19.780274410	-7.870915719
	502	1	4.078000000	19.602476695	-9.903152903
	503	2	4.078000000	17.749033421	-7.693205159
	504	1	6.117000000	17.571235706	-9.725442343
	505	1	6.117000000	19.780274410	-7.870915719
	506	1	8.157000000	19.602476695	-9.903152903
	507	2	8.157000000	17.749033421	-7.693205159
	508	1	10.196000000	17.571235706	-9.725442343
	509	1	10.196000000	19.780274410	-7.870915719
	510	1	12.235000000	19.602476695	-9.903152903
	511	1	12.235000000	17.749033421	-7.693205159
	512	1	14.274000000	17.571235706	-9.725442343
	513	2	14.274000000	19.780274410	-7.870915719
	514	1	16.313000000	19.602476695	-9.903152903
	515	2	16.313000000	17.749033421	-7.693205159
	516	2	18.352000000	17.571235706	-9.725442343
	517	1	18.352000000	19.780274410	-7.870915719
	518	1	20.391000000	19.602476695	-9.903152903
	519	2	20.391000000	17.749033421	-7.693205159
	520	1	-22.431000000	17.926743980	-5.661964170
	521	2	-20.391000000	19.957984970	-5.839674729
	522	1	-20.391000000	18.104454540	-3.630723180
	523	1	-18.352000000	17.926743980	-5.661964170
	524	1	-18.352000000	20.135695529	-3.808433740
	525	2	-16.313000000	19.957984970	-5.839674729
	526	2	-16.313000000	18.104454540	-3.630723180
	527	2	-14.274000000	17.926743980	-5.661964170
	528	2	-14.274000000	20.135695529	-3.808433740
	529	2	-12.235000000	19.957984970	-5.839674729
	530	2	-12.235000000	18.104454540	-3.630723180
	531	2	-10.196000000	17.926743980	-5.661964170
	532	1	-10.196000000	20.135695529	-3.808433740
	533	1	-8.157000000	19.957984970	-5.839674729
	534	1	-8.157000000	18.104454540	-3.630723180
	535	1	-6.117000000	17.926743980	-5.661964170
	536	1	-6.117000000	20.135695529	-3.808433740
	537	2	-4.078000000	19.957984970	-5.839674729
	538	1	-4.078000000	18.104454540	-3.630723180
	539	1	-2.039000000	17.926743980	-5.661964170
	540	1	-2.039000000	20.135695529	-3.808433740
	541	1	0.000000000	19.957984970	-5.839674729
	542	1	0.000000000	18.104454540	-3.630723180
	543	2	2.039000000	17.926743980	-5.661964170
	544	1	2.039000000	20.135695529	-3.808433740
	545	1	4.078000000	19.957984970	-5.839674729
	546	2	4.078000000	18.104454540	-3.630723180
	547	2	6.117000000	17.926743980	-5.661964170
	548	2	6.117000000	20.135695529	-3.808433740
	549	1	8.157000000	19.957984970	-5.839674729
	550	1	8.157000000	18.104454540	-3.630723180
	551	2	10.196000000	17.926743980	-5.661964170
	552	1	10.196000000	20.135695529	-3.808433740
	553	2	12.235000000	19.957984970	-5.839674729
	554	1	12.235000000	18.104454540	-3.630723180
	555	2	14.274000000	17.926743980	-5.661964170
	556	1	14.274000000	20.135695529	-3.808433740
	557	1	16.313000000	19.957984970	-5.839674729
	558	1	16.313000000	18.104454540	-3.630723180
	559	2	18.352000000	17.926743980	-5.661964170
	560	1	18.352000000	20.135695529	-3.808433740
	561	1	20.391000000	19.957984970	-5.839674729
	562	2	20.391000000	18.104454540	-3.630723180
	563	1	22.431000000	17.926743980	-5.661964170
	564	1	-22.431000000	18.282165099	-1.599482191
	565	1	-20.391000000	20.313406089	-1.777192750
	566	2	-20.391000000	18.459875659	0.431758799
	567	1	-18.352000000	18.282165099	-1.599482191
	568	2	-18.352000000	20.491116648	0.254048239
	569	1	-16.313000000	20.313406089	-1.777192750
	570	1	-16.313000000	18.459875659	0.431758799
	571	2	-14.274000000	18.282165099	-1.599482191
	572	1	-14.274000000	20.491116648	0.254048239
	573	2	-12.235000000	20.313406089	-1.777192750
	574	1	-12.235000000	18.459875659	0.431758799
	575	2	-10.196000000	18.282165099	-1.599482191
	576	2	-10.196000000	20.491116648	0.254048239
	577	1	-8.157000000	20.313406089	-1.777192750
	578	1	-8.157000000	18.459875659	0.431758799
	579	1	-6.117000000	18.282165099	-1.599482191
	580	1	-6.117000000	20.491116648	0.254048239
	581	1	-4.078000000	20.313406089	-1.777192750
	582	1	-4.078000000	18.459875659	0.431758799
	583	1	-2.039000000	18.282165099	-1.599482191
	584	1	-2.039000000	20.491116648	0.254048239
	585	2	0.000000000	20.313406089	-1.777192750
	586	1	0.000000000	18.459875659	0.431758799
	587	2	2.039000000	18.282165099	-1.599482191
	588	1	2.039000000	20.491116648	0.254048239
	589	2	4.078000000	20.313406089	-1.777192750
	590	2	4.078000000	18.459875659	0.431758799
	591	1	6.117000000	18.282165099	-1.599482191
	592	2	6.117000000	20.491116648	0.254048239
	593	1	8.157000000	20.313406089	-1.777192750
	594	2	8.157000000	18.459875659	0.431758799
	595	1	10.196000000	18.282165099	-1.599482191
	596	2	10.196000000	20.491116648	0.254048239
	597	1	12.235000000	20.313406089	-1.777192750
	598	1	12.235000000	18.459875659	0.431758799
	599	2	14.274000000	18.282165099	-1.599482191
	600	1	14.274000000	20.491116648	0.254048239
	601	2	16.313000000	20.313406089	-1.777192750
	602	1	16.313000000	18.459875659	0.431758799
	603	1	18.352000000	18.282165099	-1.599482191
	604	2	18.352000000	20.491116648	0.254048239
	605	2	20.391000000	20.313406089	-1.777192750
	606	1	20.391000000	18.459875659	0.431758799
	607	1	22.431000000	18.282165099	-1.599482191
	608	2	-22.431000000	18.637586218	2.462999788
	609	1	-20.391000000	20.668827208	2.285289228
	610	1	-20.391000000	18.815296778	4.494240777
	611	2	-18.352000000	18.637586218	2.462999788
	612	2	-18.352000000	20.846537767	4.316530218
	613	2	-16.313000000	20.668827208	2.285289228
	614	1	-16.313000000	18.815296778	4.494240777
	615	2	-14.274000000	18.637586218	2.462999788
	616	2	-14.274000000	20.846537767	4.316530218
	617	1	-12.235000000	20.668827208	2.285289228
	618	1	-12.235000000	18.815296778	4.494240777
	619	1	-10.196000000	18.637586218	2.462999788
	620	2	-10.196000000	20.846537767	4.316530218
	621	2	-8.157000000	20.668827208	2.285289228
	622	1	-8.157000000	18.815296778	4.494240777
	623	1	-6.117000000	18.637586218	2.462999788
	624	1	-6.117000000	20.846537767	4.316530218
	625	1	-4.078000000	20.668827208	2.285289228
	626	2	-4.078000000	18.815296778	4.494240777
	627	2	-2.039000000	18.637586218	2.462999788
	628	2	-2.039000000	20.846537767	4.316530218
	629	2	0.000000000	20.668827208	2.285289228
	630	2	0.000000000	18.815296778	4.494240777
	631	2	2.039000000	18.637586218	2.462999788
	632	1	2.039000000	20.846537767	4.316530218
	633	2	4.078000000	20.668827208	2.285289228
	634	2	4.078000000	18.815296778	4.494240777
	635	2	6.117000000	18.637586218	2.462999788
	636	1	6.117000000	20.846537767	4.316530218
	637	1	8.157000000	20.668827208	2.285289228
	638	1	8.157000000	18.815296778	4.494240777
	639	1	10.196000000	18.637586218	2.462999788
	640	1	10.196000000	20.846537767	4.316530218
	641	1	12.235000000	20.668827208	2.285289228
	642	2	12.235000000	18.815296778	4.494240777
	643	1	14.274000000	18.637586218	2.462999788
	644	2	14.274000000	20.846537767	4.316530218
	645	1	16.313000000	20.668827208	2.285289228
	646	1	16.313000000	18.815296778	4.494240777
	647	2	18.352000000	18.637586218	2.462999788
	648	1	18.352000000	20.846537767	4.316530218
	649	1	20.391000000	20.668827208	2.285289228
	650	2	20.391000000	18.815296778	4.494240777
	651	2	22.431000000	18.637586218	2.462999788
	652	1	-20.391000000	21.024335482	6.348767402