
        6699 atoms 
           2 atom types 
  -60.0000000       60.000000     xlo xhi 
  -60.0000000       60.000000     ylo yhi 
  -60.0000000       60.000000     zlo zhi 
 Atoms 

	1	1	0.000000000	0.000000000	0.000000000
	2	1	0.000000000	-0.746325798	2.785325798
	3	1	2.039000000	-1.765825798	1.019500000
	4	2	2.039000000	1.019500000	1.765825798
	5	2	-8.157000000	17.859467429	-22.084495017
	6	2	-6.117000000	16.839967429	-23.850320815
	7	1	-4.078000000	17.859467429	-22.084495017
	8	2	-2.039000000	16.839967429	-23.850320815
	9	2	0.000000000	17.859467429	-22.084495017
	10	2	2.039000000	16.839967429	-23.850320815
	11	2	4.078000000	17.859467429	-22.084495017
	12	2	6.117000000	16.839967429	-23.850320815
	13	2	8.157000000	17.859467429	-22.084495017
	14	2	-12.235000000	19.898967429	-18.551977395
	15	2	-10.196000000	18.878967429	-20.318669219
	16	2	-8.157000000	19.898967429	-18.551977395
	17	2	-6.117000000	18.878967429	-20.318669219
	18	2	-6.117000000	21.664793227	-19.571477395
	19	2	-4.078000000	20.644793227	-21.338169219
	20	2	-4.078000000	19.898967429	-18.551977395
	21	2	-2.039000000	18.878967429	-20.318669219
	22	2	-2.039000000	21.664793227	-19.571477395
	23	2	0.000000000	20.644793227	-21.338169219
	24	2	0.000000000	19.898967429	-18.551977395
	25	2	2.039000000	18.878967429	-20.318669219
	26	2	2.039000000	21.664793227	-19.571477395
	27	2	4.078000000	20.644793227	-21.338169219
	28	2	4.078000000	19.898967429	-18.551977395
	29	2	6.117000000	18.878967429	-20.318669219
	30	2	6.117000000	21.664793227	-19.571477395
	31	2	8.157000000	19.898967429	-18.551977395
	32	2	10.196000000	18.878967429	-20.318669219
	33	2	12.235000000	19.898967429	-18.551977395
	34	2	-12.235000000	21.937967429	-15.020325798
	35	2	-10.196000000	20.918467429	-16.786151597
	36	2	-8.157000000	22.684293227	-17.805651597
	37	2	-8.157000000	21.937967429	-15.020325798
	38	2	-6.117000000	20.918467429	-16.786151597
	39	2	-6.117000000	23.703793227	-16.039825798
	40	2	-4.078000000	22.684293227	-17.805651597
	41	2	-4.078000000	21.937967429	-15.020325798
	42	2	-2.039000000	20.918467429	-16.786151597
	43	2	-2.039000000	23.703793227	-16.039825798
	44	2	0.000000000	22.684293227	-17.805651597
	45	2	0.000000000	21.937967429	-15.020325798
	46	2	2.039000000	20.918467429	-16.786151597
	47	2	2.039000000	23.703793227	-16.039825798
	48	2	4.078000000	22.684293227	-17.805651597
	49	2	4.078000000	21.937967429	-15.020325798
	50	2	6.117000000	20.918467429	-16.786151597
	51	2	6.117000000	23.703793227	-16.039825798
	52	2	8.157000000	22.684293227	-17.805651597
	53	2	8.157000000	21.937967429	-15.020325798
	54	2	10.196000000	20.918467429	-16.786151597
	55	2	12.235000000	21.937967429	-15.020325798
	56	2	-12.235000000	23.976967429	-11.488674202
	57	2	-10.196000000	22.957467429	-13.254500000
	58	2	-8.157000000	24.723293227	-14.274000000
	59	2	-8.157000000	23.976967429	-11.488674202
	60	2	-6.117000000	22.957467429	-13.254500000
	61	2	-6.117000000	25.742793227	-12.508174202
	62	2	-4.078000000	24.723293227	-14.274000000
	63	2	-4.078000000	23.976967429	-11.488674202
	64	2	-2.039000000	22.957467429	-13.254500000
	65	2	-2.039000000	25.742793227	-12.508174202
	66	2	0.000000000	24.723293227	-14.274000000
	67	2	0.000000000	23.976967429	-11.488674202
	68	2	2.039000000	22.957467429	-13.254500000
	69	2	2.039000000	25.742793227	-12.508174202
	70	2	4.078000000	24.723293227	-14.274000000
	71	2	4.078000000	23.976967429	-11.488674202
	72	2	6.117000000	22.957467429	-13.254500000
	73	2	6.117000000	25.742793227	-12.508174202
	74	2	8.157000000	24.723293227	-14.274000000
	75	2	8.157000000	23.976967429	-11.488674202
	76	2	10.196000000	22.957467429	-13.254500000
	77	2	12.235000000	23.976967429	-11.488674202
	78	2	-12.235000000	26.015967429	-7.957022605
	79	2	-10.196000000	24.996467429	-9.722848403
	80	2	-8.157000000	26.762293227	-10.742348403
	81	2	-8.157000000	26.015967429	-7.957022605
	82	1	-6.117000000	24.996467429	-9.722848403
	83	2	-6.117000000	27.781793227	-8.976522605
	84	2	-4.078000000	26.762293227	-10.742348403
	85	2	-4.078000000	26.015967429	-7.957022605
	86	2	-2.039000000	24.996467429	-9.722848403
	87	2	-2.039000000	27.781793227	-8.976522605
	88	2	0.000000000	26.762293227	-10.742348403
	89	2	0.000000000	26.015967429	-7.957022605
	90	2	2.039000000	24.996467429	-9.722848403
	91	2	2.039000000	27.781793227	-8.976522605
	92	2	4.078000000	26.762293227	-10.742348403
	93	2	4.078000000	26.015967429	-7.957022605
	94	2	6.117000000	24.996467429	-9.722848403
	95	2	6.117000000	27.781793227	-8.976522605
	96	2	8.157000000	26.762293227	-10.742348403
	97	2	8.157000000	26.015967429	-7.957022605
	98	2	10.196000000	24.996467429	-9.722848403
	99	2	12.235000000	26.015967429	-7.957022605
	100	2	-10.196000000	27.035967429	-6.190330781
	101	2	-8.157000000	28.055467429	-4.424504983
	102	2	-6.117000000	27.035967429	-6.190330781
	103	2	-4.078000000	28.801793227	-7.209830781
	104	2	-4.078000000	28.055467429	-4.424504983
	105	2	-2.039000000	27.035967429	-6.190330781
	106	2	0.000000000	28.801793227	-7.209830781
	107	2	0.000000000	28.055467429	-4.424504983
	108	2	2.039000000	27.035967429	-6.190330781
	109	2	4.078000000	28.801793227	-7.209830781
	110	2	4.078000000	28.055467429	-4.424504983
	111	2	6.117000000	27.035967429	-6.190330781
	112	2	8.157000000	28.055467429	-4.424504983
	113	2	10.196000000	27.035967429	-6.190330781
	114	2	-6.117000000	29.074967429	-2.658679185
	115	2	-2.039000000	29.074967429	-2.658679185
	116	2	2.039000000	29.074967429	-2.658679185
	117	2	6.117000000	29.074967429	-2.658679185
	118	2	-4.078000000	10.249815832	-27.108798210
	119	2	0.000000000	10.249815832	-27.108798210
	120	2	4.078000000	10.249815832	-27.108798210
	121	2	-12.235000000	12.288815832	-23.577146614
	122	2	-10.196000000	11.269315832	-25.342972412
	123	2	-8.157000000	12.288815832	-23.577146614
	124	2	-6.117000000	11.269315832	-25.342972412
	125	1	-6.117000000	14.054641631	-24.596646614
	126	2	-4.078000000	13.035141631	-26.362472412
	127	2	-4.078000000	12.288815832	-23.577146614
	128	2	-2.039000000	11.269315832	-25.342972412
	129	2	-2.039000000	14.054641631	-24.596646614
	130	2	0.000000000	13.035141631	-26.362472412
	131	2	0.000000000	12.288815832	-23.577146614
	132	2	2.039000000	11.269315832	-25.342972412
	133	1	2.039000000	14.054641631	-24.596646614
	134	2	4.078000000	13.035141631	-26.362472412
	135	2	4.078000000	12.288815832	-23.577146614
	136	2	6.117000000	11.269315832	-25.342972412
	137	2	6.117000000	14.054641631	-24.596646614
	138	2	8.157000000	12.288815832	-23.577146614
	139	2	10.196000000	11.269315832	-25.342972412
	140	2	12.235000000	12.288815832	-23.577146614
	141	2	-16.313000000	14.327815832	-20.045495017
	142	2	-14.274000000	13.308315832	-21.811320815
	143	2	-12.235000000	15.074141631	-22.830820815
	144	2	-12.235000000	14.327815832	-20.045495017
	145	2	-10.196000000	13.308315832	-21.811320815
	146	1	-10.196000000	16.093641631	-21.064995017
	147	2	-8.157000000	15.074141631	-22.830820815
	148	1	-8.157000000	14.327815832	-20.045495017
	149	2	-6.117000000	13.308315832	-21.811320815
	150	2	-6.117000000	16.093641631	-21.064995017
	151	2	-4.078000000	15.074141631	-22.830820815
	152	2	-4.078000000	14.327815832	-20.045495017
	153	1	-2.039000000	13.308315832	-21.811320815
	154	2	-2.039000000	16.093641631	-21.064995017
	155	2	0.000000000	15.074141631	-22.830820815
	156	2	0.000000000	14.327815832	-20.045495017
	157	2	2.039000000	13.308315832	-21.811320815
	158	2	2.039000000	16.093641631	-21.064995017
	159	2	4.078000000	15.074141631	-22.830820815
	160	2	4.078000000	14.327815832	-20.045495017
	161	2	6.117000000	13.308315832	-21.811320815
	162	2	6.117000000	16.093641631	-21.064995017
	163	2	8.157000000	15.074141631	-22.830820815
	164	2	8.157000000	14.327815832	-20.045495017
	165	2	10.196000000	13.308315832	-21.811320815
	166	2	10.196000000	16.093641631	-21.064995017
	167	2	12.235000000	15.074141631	-22.830820815
	168	2	12.235000000	14.327815832	-20.045495017
	169	2	14.274000000	13.308315832	-21.811320815
	170	2	16.313000000	14.327815832	-20.045495017
	171	2	-16.313000000	16.367315832	-16.512977395
	172	2	-14.274000000	15.347315832	-18.279669219
	173	2	-14.274000000	18.133141631	-17.532477395
	174	2	-12.235000000	17.113141631	-19.299169219
	175	2	-12.235000000	16.367315832	-16.512977395
	176	1	-10.196000000	15.347315832	-18.279669219
	177	2	-10.196000000	18.133141631	-17.532477395
	178	2	-8.157000000	17.113141631	-19.299169219
	179	2	-8.157000000	16.367315832	-16.512977395
	180	2	-6.117000000	15.347315832	-18.279669219
	181	2	-6.117000000	18.133141631	-17.532477395
	182	2	-4.078000000	17.113141631	-19.299169219
	183	2	-4.078000000	16.367315832	-16.512977395
	184	2	-2.039000000	15.347315832	-18.279669219
	185	2	-2.039000000	18.133141631	-17.532477395
	186	2	0.000000000	17.113141631	-19.299169219
	187	2	0.000000000	16.367315832	-16.512977395
	188	2	2.039000000	15.347315832	-18.279669219
	189	2	2.039000000	18.133141631	-17.532477395
	190	2	4.078000000	17.113141631	-19.299169219
	191	2	4.078000000	16.367315832	-16.512977395
	192	2	6.117000000	15.347315832	-18.279669219
	193	2	6.117000000	18.133141631	-17.532477395
	194	2	8.157000000	17.113141631	-19.299169219
	195	1	8.157000000	16.367315832	-16.512977395
	196	2	10.196000000	15.347315832	-18.279669219
	197	2	10.196000000	18.133141631	-17.532477395
	198	2	12.235000000	17.113141631	-19.299169219
	199	2	12.235000000	16.367315832	-16.512977395
	200	1	14.274000000	15.347315832	-18.279669219
	201	2	14.274000000	18.133141631	-17.532477395
	202	2	16.313000000	16.367315832	-16.512977395
	203	2	-18.352000000	17.386815832	-14.747151597
	204	2	-16.313000000	19.152641631	-15.766651597
	205	2	-16.313000000	18.406315832	-12.981325798
	206	2	-14.274000000	17.386815832	-14.747151597
	207	2	-14.274000000	20.172141631	-14.000825798
	208	2	-12.235000000	19.152641631	-15.766651597
	209	2	-12.235000000	18.406315832	-12.981325798
	210	2	-10.196000000	17.386815832	-14.747151597
	211	2	-10.196000000	20.172141631	-14.000825798
	212	2	-8.157000000	19.152641631	-15.766651597
	213	2	-8.157000000	18.406315832	-12.981325798
	214	2	-6.117000000	17.386815832	-14.747151597
	215	2	-6.117000000	20.172141631	-14.000825798
	216	2	-4.078000000	19.152641631	-15.766651597
	217	2	-4.078000000	18.406315832	-12.981325798
	218	2	-2.039000000	17.386815832	-14.747151597
	219	2	-2.039000000	20.172141631	-14.000825798
	220	2	0.000000000	19.152641631	-15.766651597
	221	2	0.000000000	18.406315832	-12.981325798
	222	1	2.039000000	17.386815832	-14.747151597
	223	2	2.039000000	20.172141631	-14.000825798
	224	2	4.078000000	19.152641631	-15.766651597
	225	2	4.078000000	18.406315832	-12.981325798
	226	2	6.117000000	17.386815832	-14.747151597
	227	2	6.117000000	20.172141631	-14.000825798
	228	2	8.157000000	19.152641631	-15.766651597
	229	2	8.157000000	18.406315832	-12.981325798
	230	2	10.196000000	17.386815832	-14.747151597
	231	2	10.196000000	20.172141631	-14.000825798
	232	2	12.235000000	19.152641631	-15.766651597
	233	2	12.235000000	18.406315832	-12.981325798
	234	2	14.274000000	17.386815832	-14.747151597
	235	2	14.274000000	20.172141631	-14.000825798
	236	2	16.313000000	19.152641631	-15.766651597
	237	2	16.313000000	18.406315832	-12.981325798
	238	2	18.352000000	17.386815832	-14.747151597
	239	2	-18.352000000	19.425815832	-11.215500000
	240	2	-16.313000000	21.191641631	-12.235000000
	241	2	-16.313000000	20.445315832	-9.449674202
	242	2	-14.274000000	19.425815832	-11.215500000
	243	2	-14.274000000	22.211141631	-10.469174202
	244	2	-12.235000000	21.191641631	-12.235000000
	245	2	-12.235000000	20.445315832	-9.449674202
	246	2	-10.196000000	19.425815832	-11.215500000
	247	2	-10.196000000	22.211141631	-10.469174202
	248	2	-8.157000000	21.191641631	-12.235000000
	249	2	-8.157000000	20.445315832	-9.449674202
	250	2	-6.117000000	19.425815832	-11.215500000
	251	2	-6.117000000	22.211141631	-10.469174202
	252	2	-4.078000000	21.191641631	-12.235000000
	253	1	-4.078000000	20.445315832	-9.449674202
	254	2	-2.039000000	19.425815832	-11.215500000
	255	2	-2.039000000	22.211141631	-10.469174202
	256	2	0.000000000	21.191641631	-12.235000000
	257	2	0.000000000	20.445315832	-9.449674202
	258	1	2.039000000	19.425815832	-11.215500000
	259	2	2.039000000	22.211141631	-10.469174202
	260	2	4.078000000	21.191641631	-12.235000000
	261	1	4.078000000	20.445315832	-9.449674202
	262	2	6.117000000	19.425815832	-11.215500000
	263	2	6.117000000	22.211141631	-10.469174202
	264	1	8.157000000	21.191641631	-12.235000000
	265	1	8.157000000	20.445315832	-9.449674202
	266	2	10.196000000	19.425815832	-11.215500000
	267	2	10.196000000	22.211141631	-10.469174202
	268	2	12.235000000	21.191641631	-12.235000000
	269	2	12.235000000	20.445315832	-9.449674202
	270	2	14.274000000	19.425815832	-11.215500000
	271	2	14.274000000	22.211141631	-10.469174202
	272	2	16.313000000	21.191641631	-12.235000000
	273	1	16.313000000	20.445315832	-9.449674202
	274	2	18.352000000	19.425815832	-11.215500000
	275	2	-18.352000000	21.464815832	-7.683848403
	276	2	-16.313000000	23.230641631	-8.703348403
	277	2	-16.313000000	22.484315832	-5.918022605
	278	2	-14.274000000	21.464815832	-7.683848403
	279	2	-14.274000000	24.250141631	-6.937522605
	280	2	-12.235000000	23.230641631	-8.703348403
	281	2	-12.235000000	22.484315832	-5.918022605
	282	2	-10.196000000	21.464815832	-7.683848403
	283	2	-10.196000000	24.250141631	-6.937522605
	284	1	-8.157000000	23.230641631	-8.703348403
	285	2	-8.157000000	22.484315832	-5.918022605
	286	2	-6.117000000	21.464815832	-7.683848403
	287	2	-6.117000000	24.250141631	-6.937522605
	288	2	-4.078000000	23.230641631	-8.703348403
	289	2	-4.078000000	22.484315832	-5.918022605
	290	2	-2.039000000	21.464815832	-7.683848403
	291	2	-2.039000000	24.250141631	-6.937522605
	292	2	0.000000000	23.230641631	-8.703348403
	293	2	0.000000000	22.484315832	-5.918022605
	294	2	2.039000000	21.464815832	-7.683848403
	295	2	2.039000000	24.250141631	-6.937522605
	296	2	4.078000000	23.230641631	-8.703348403
	297	2	4.078000000	22.484315832	-5.918022605
	298	1	6.117000000	21.464815832	-7.683848403
	299	2	6.117000000	24.250141631	-6.937522605
	300	2	8.157000000	23.230641631	-8.703348403
	301	2	8.157000000	22.484315832	-5.918022605
	302	2	10.196000000	21.464815832	-7.683848403
	303	2	10.196000000	24.250141631	-6.937522605
	304	2	12.235000000	23.230641631	-8.703348403
	305	2	12.235000000	22.484315832	-5.918022605
	306	2	14.274000000	21.464815832	-7.683848403
	307	2	14.274000000	24.250141631	-6.937522605
	308	2	16.313000000	23.230641631	-8.703348403
	309	2	16.313000000	22.484315832	-5.918022605
	310	2	18.352000000	21.464815832	-7.683848403
	311	2	-16.313000000	24.523815832	-2.385504983
	312	2	-14.274000000	23.504315832	-4.151330781
	313	2	-12.235000000	25.270141631	-5.170830781
	314	2	-12.235000000	24.523815832	-2.385504983
	315	2	-10.196000000	23.504315832	-4.151330781
	316	2	-10.196000000	26.289641631	-3.405004983
	317	2	-8.157000000	25.270141631	-5.170830781
	318	2	-8.157000000	24.523815832	-2.385504983
	319	2	-6.117000000	23.504315832	-4.151330781
	320	2	-6.117000000	26.289641631	-3.405004983
	321	2	-4.078000000	25.270141631	-5.170830781
	322	2	-4.078000000	24.523815832	-2.385504983
	323	2	-2.039000000	23.504315832	-4.151330781
	324	1	-2.039000000	26.289641631	-3.405004983
	325	1	0.000000000	25.270141631	-5.170830781
	326	2	0.000000000	24.523815832	-2.385504983
	327	1	2.039000000	23.504315832	-4.151330781
	328	2	2.039000000	26.289641631	-3.405004983
	329	2	4.078000000	25.270141631	-5.170830781
	330	2	4.078000000	24.523815832	-2.385504983
	331	2	6.117000000	23.504315832	-4.151330781
	332	2	6.117000000	26.289641631	-3.405004983
	333	2	8.157000000	25.270141631	-5.170830781
	334	2	8.157000000	24.523815832	-2.385504983
	335	2	10.196000000	23.504315832	-4.151330781
	336	2	10.196000000	26.289641631	-3.405004983
	337	2	12.235000000	25.270141631	-5.170830781
	338	2	12.235000000	24.523815832	-2.385504983
	339	1	14.274000000	23.504315832	-4.151330781
	340	2	16.313000000	24.523815832	-2.385504983
	341	2	-14.274000000	25.543315832	-0.619679185
	342	2	-12.235000000	27.309141631	-1.639179185
	343	2	-12.235000000	26.562815832	1.146146614
	344	2	-10.196000000	25.543315832	-0.619679185
	345	2	-8.157000000	27.309141631	-1.639179185
	346	1	-8.157000000	26.562815832	1.146146614
	347	2	-6.117000000	25.543315832	-0.619679185
	348	2	-6.117000000	28.328641631	0.126646614
	349	2	-4.078000000	27.309141631	-1.639179185
	350	2	-4.078000000	26.562815832	1.146146614
	351	2	-2.039000000	25.543315832	-0.619679185
	352	2	-2.039000000	28.328641631	0.126646614
	353	2	0.000000000	27.309141631	-1.639179185
	354	2	0.000000000	26.562815832	1.146146614
	355	2	2.039000000	25.543315832	-0.619679185
	356	2	2.039000000	28.328641631	0.126646614
	357	2	4.078000000	27.309141631	-1.639179185
	358	2	4.078000000	26.562815832	1.146146614
	359	2	6.117000000	25.543315832	-0.619679185
	360	2	6.117000000	28.328641631	0.126646614
	361	2	8.157000000	27.309141631	-1.639179185
	362	2	8.157000000	26.562815832	1.146146614
	363	2	10.196000000	25.543315832	-0.619679185
	364	2	12.235000000	27.309141631	-1.639179185
	365	2	12.235000000	26.562815832	1.146146614
	366	2	14.274000000	25.543315832	-0.619679185
	367	2	-10.196000000	27.582315832	2.911972412
	368	2	-6.117000000	27.582315832	2.911972412
	369	2	-4.078000000	29.348141631	1.892472412
	370	2	-4.078000000	28.601815832	4.677798210
	371	2	-2.039000000	27.582315832	2.911972412
	372	2	0.000000000	29.348141631	1.892472412
	373	2	0.000000000	28.601815832	4.677798210
	374	2	2.039000000	27.582315832	2.911972412
	375	2	4.078000000	29.348141631	1.892472412
	376	2	4.078000000	28.601815832	4.677798210
	377	2	6.117000000	27.582315832	2.911972412
	378	2	10.196000000	27.582315832	2.911972412
	379	2	-4.078000000	4.677798210	-28.601815832
	380	2	0.000000000	4.677798210	-28.601815832
	381	2	4.078000000	4.677798210	-28.601815832
	382	2	-12.235000000	6.717298210	-25.069298210
	383	2	-10.196000000	5.697798210	-26.835124009
	384	2	-10.196000000	8.483124009	-26.088798210
	385	2	-8.157000000	7.463624009	-27.854624009
	386	2	-8.157000000	6.717298210	-25.069298210
	387	2	-6.117000000	5.697798210	-26.835124009
	388	2	-6.117000000	8.483124009	-26.088798210
	389	2	-4.078000000	7.463624009	-27.854624009
	390	2	-4.078000000	6.717298210	-25.069298210
	391	1	-2.039000000	5.697798210	-26.835124009
	392	2	-2.039000000	8.483124009	-26.088798210
	393	2	0.000000000	7.463624009	-27.854624009
	394	2	0.000000000	6.717298210	-25.069298210
	395	2	2.039000000	5.697798210	-26.835124009
	396	2	2.039000000	8.483124009	-26.088798210
	397	2	4.078000000	7.463624009	-27.854624009
	398	2	4.078000000	6.717298210	-25.069298210
	399	2	6.117000000	5.697798210	-26.835124009
	400	2	6.117000000	8.483124009	-26.088798210
	401	2	8.157000000	7.463624009	-27.854624009
	402	2	8.157000000	6.717298210	-25.069298210
	403	2	10.196000000	5.697798210	-26.835124009
	404	2	10.196000000	8.483124009	-26.088798210
	405	2	12.235000000	6.717298210	-25.069298210
	406	2	-16.313000000	8.756298210	-21.537646614
	407	2	-14.274000000	7.736798210	-23.303472412
	408	2	-14.274000000	10.522124009	-22.557146614
	409	2	-12.235000000	9.502624009	-24.322972412
	410	1	-12.235000000	8.756298210	-21.537646614
	411	1	-10.196000000	7.736798210	-23.303472412
	412	1	-10.196000000	10.522124009	-22.557146614
	413	2	-8.157000000	9.502624009	-24.322972412
	414	2	-8.157000000	8.756298210	-21.537646614
	415	2	-6.117000000	7.736798210	-23.303472412
	416	2	-6.117000000	10.522124009	-22.557146614
	417	2	-4.078000000	9.502624009	-24.322972412
	418	1	-4.078000000	8.756298210	-21.537646614
	419	2	-2.039000000	7.736798210	-23.303472412
	420	2	-2.039000000	10.522124009	-22.557146614
	421	2	0.000000000	9.502624009	-24.322972412
	422	1	0.000000000	8.756298210	-21.537646614
	423	2	2.039000000	7.736798210	-23.303472412
	424	2	2.039000000	10.522124009	-22.557146614
	425	2	4.078000000	9.502624009	-24.322972412
	426	2	4.078000000	8.756298210	-21.537646614
	427	2	6.117000000	7.736798210	-23.303472412
	428	2	6.117000000	10.522124009	-22.557146614
	429	2	8.157000000	9.502624009	-24.322972412
	430	2	8.157000000	8.756298210	-21.537646614
	431	2	10.196000000	7.736798210	-23.303472412
	432	2	10.196000000	10.522124009	-22.557146614
	433	2	12.235000000	9.502624009	-24.322972412
	434	2	12.235000000	8.756298210	-21.537646614
	435	2	14.274000000	7.736798210	-23.303472412
	436	2	14.274000000	10.522124009	-22.557146614
	437	2	16.313000000	8.756298210	-21.537646614
	438	2	-20.391000000	10.795298210	-18.005995017
	439	2	-18.352000000	9.775798210	-19.771820815
	440	2	-18.352000000	12.561124009	-19.025495017
	441	2	-16.313000000	11.541624009	-20.791320815
	442	2	-16.313000000	10.795298210	-18.005995017
	443	2	-14.274000000	9.775798210	-19.771820815
	444	2	-14.274000000	12.561124009	-19.025495017
	445	2	-12.235000000	11.541624009	-20.791320815
	446	2	-12.235000000	10.795298210	-18.005995017
	447	2	-10.196000000	9.775798210	-19.771820815
	448	2	-10.196000000	12.561124009	-19.025495017
	449	2	-8.157000000	11.541624009	-20.791320815
	450	2	-8.157000000	10.795298210	-18.005995017
	451	2	-6.117000000	9.775798210	-19.771820815
	452	2	-6.117000000	12.561124009	-19.025495017
	453	2	-4.078000000	11.541624009	-20.791320815
	454	2	-4.078000000	10.795298210	-18.005995017
	455	2	-2.039000000	9.775798210	-19.771820815
	456	1	-2.039000000	12.561124009	-19.025495017
	457	2	0.000000000	11.541624009	-20.791320815
	458	2	0.000000000	10.795298210	-18.005995017
	459	2	2.039000000	9.775798210	-19.771820815
	460	2	2.039000000	12.561124009	-19.025495017
	461	2	4.078000000	11.541624009	-20.791320815
	462	1	4.078000000	10.795298210	-18.005995017
	463	1	6.117000000	9.775798210	-19.771820815
	464	2	6.117000000	12.561124009	-19.025495017
	465	2	8.157000000	11.541624009	-20.791320815
	466	1	8.157000000	10.795298210	-18.005995017
	467	2	10.196000000	9.775798210	-19.771820815
	468	2	10.196000000	12.561124009	-19.025495017
	469	2	12.235000000	11.541624009	-20.791320815
	470	2	12.235000000	10.795298210	-18.005995017
	471	2	14.274000000	9.775798210	-19.771820815
	472	2	14.274000000	12.561124009	-19.025495017
	473	2	16.313000000	11.541624009	-20.791320815
	474	2	16.313000000	10.795298210	-18.005995017
	475	2	18.352000000	9.775798210	-19.771820815
	476	2	18.352000000	12.561124009	-19.025495017
	477	2	20.391000000	10.795298210	-18.005995017
	478	2	-20.391000000	13.580624009	-17.259669219
	479	2	-20.391000000	12.834798210	-14.473477395
	480	1	-18.352000000	11.814798210	-16.240169219
	481	2	-18.352000000	14.600624009	-15.492977395
	482	2	-16.313000000	13.580624009	-17.259669219
	483	2	-16.313000000	12.834798210	-14.473477395
	484	2	-14.274000000	11.814798210	-16.240169219
	485	2	-14.274000000	14.600624009	-15.492977395
	486	2	-12.235000000	13.580624009	-17.259669219
	487	2	-12.235000000	12.834798210	-14.473477395
	488	2	-10.196000000	11.814798210	-16.240169219
	489	2	-10.196000000	14.600624009	-15.492977395
	490	2	-8.157000000	13.580624009	-17.259669219
	491	2	-8.157000000	12.834798210	-14.473477395
	492	1	-6.117000000	11.814798210	-16.240169219
	493	1	-6.117000000	14.600624009	-15.492977395
	494	2	-4.078000000	13.580624009	-17.259669219
	495	2	-4.078000000	12.834798210	-14.473477395
	496	2	-2.039000000	11.814798210	-16.240169219
	497	2	-2.039000000	14.600624009	-15.492977395
	498	2	0.000000000	13.580624009	-17.259669219
	499	2	0.000000000	12.834798210	-14.473477395
	500	2	2.039000000	11.814798210	-16.240169219
	501	1	2.039000000	14.600624009	-15.492977395
	502	2	4.078000000	13.580624009	-17.259669219
	503	1	4.078000000	12.834798210	-14.473477395
	504	2	6.117000000	11.814798210	-16.240169219
	505	2	6.117000000	14.600624009	-15.492977395
	506	1	8.157000000	13.580624009	-17.259669219
	507	2	8.157000000	12.834798210	-14.473477395
	508	1	10.196000000	11.814798210	-16.240169219
	509	2	10.196000000	14.600624009	-15.492977395
	510	2	12.235000000	13.580624009	-17.259669219
	511	2	12.235000000	12.834798210	-14.473477395
	512	2	14.274000000	11.814798210	-16.240169219
	513	2	14.274000000	14.600624009	-15.492977395
	514	2	16.313000000	13.580624009	-17.259669219
	515	2	16.313000000	12.834798210	-14.473477395
	516	2	18.352000000	11.814798210	-16.240169219
	517	2	18.352000000	14.600624009	-15.492977395
	518	2	20.391000000	13.580624009	-17.259669219
	519	2	20.391000000	12.834798210	-14.473477395
	520	2	-22.431000000	13.854298210	-12.707651597
	521	2	-20.391000000	15.620124009	-13.727151597
	522	2	-20.391000000	14.873798210	-10.941825798
	523	2	-18.352000000	13.854298210	-12.707651597
	524	2	-18.352000000	16.639624009	-11.961325798
	525	2	-16.313000000	15.620124009	-13.727151597
	526	2	-16.313000000	14.873798210	-10.941825798
	527	1	-14.274000000	13.854298210	-12.707651597
	528	1	-14.274000000	16.639624009	-11.961325798
	529	2	-12.235000000	15.620124009	-13.727151597
	530	2	-12.235000000	14.873798210	-10.941825798
	531	2	-10.196000000	13.854298210	-12.707651597
	532	2	-10.196000000	16.639624009	-11.961325798
	533	2	-8.157000000	15.620124009	-13.727151597
	534	2	-8.157000000	14.873798210	-10.941825798
	535	2	-6.117000000	13.854298210	-12.707651597
	536	2	-6.117000000	16.639624009	-11.961325798
	537	2	-4.078000000	15.620124009	-13.727151597
	538	2	-4.078000000	14.873798210	-10.941825798
	539	2	-2.039000000	13.854298210	-12.707651597
	540	2	-2.039000000	16.639624009	-11.961325798
	541	2	0.000000000	15.620124009	-13.727151597
	542	2	0.000000000	14.873798210	-10.941825798
	543	2	2.039000000	13.854298210	-12.707651597
	544	2	2.039000000	16.639624009	-11.961325798
	545	2	4.078000000	15.620124009	-13.727151597
	546	2	4.078000000	14.873798210	-10.941825798
	547	2	6.117000000	13.854298210	-12.707651597
	548	1	6.117000000	16.639624009	-11.961325798
	549	2	8.157000000	15.620124009	-13.727151597
	550	2	8.157000000	14.873798210	-10.941825798
	551	2	10.196000000	13.854298210	-12.707651597
	552	2	10.196000000	16.639624009	-11.961325798
	553	2	12.235000000	15.620124009	-13.727151597
	554	2	12.235000000	14.873798210	-10.941825798
	555	1	14.274000000	13.854298210	-12.707651597
	556	2	14.274000000	16.639624009	-11.961325798
	557	2	16.313000000	15.620124009	-13.727151597
	558	2	16.313000000	14.873798210	-10.941825798
	559	2	18.352000000	13.854298210	-12.707651597
	560	2	18.352000000	16.639624009	-11.961325798
	561	2	20.391000000	15.620124009	-13.727151597
	562	2	20.391000000	14.873798210	-10.941825798
	563	2	22.431000000	13.854298210	-12.707651597
	564	2	-22.431000000	15.893298210	-9.176000000
	565	2	-20.391000000	17.659124009	-10.195500000
	566	2	-20.391000000	16.912798210	-7.410174202
	567	1	-18.352000000	15.893298210	-9.176000000
	568	2	-18.352000000	18.678624009	-8.429674202
	569	2	-16.313000000	17.659124009	-10.195500000
	570	1	-16.313000000	16.912798210	-7.410174202
	571	2	-14.274000000	15.893298210	-9.176000000
	572	1	-14.274000000	18.678624009	-8.429674202
	573	2	-12.235000000	17.659124009	-10.195500000
	574	2	-12.235000000	16.912798210	-7.410174202
	575	1	-10.196000000	15.893298210	-9.176000000
	576	1	-10.196000000	18.678624009	-8.429674202
	577	2	-8.157000000	17.659124009	-10.195500000
	578	1	-8.157000000	16.912798210	-7.410174202
	579	2	-6.117000000	15.893298210	-9.176000000
	580	2	-6.117000000	18.678624009	-8.429674202
	581	2	-4.078000000	17.659124009	-10.195500000
	582	2	-4.078000000	16.912798210	-7.410174202
	583	2	-2.039000000	15.893298210	-9.176000000
	584	2	-2.039000000	18.678624009	-8.429674202
	585	1	0.000000000	17.659124009	-10.195500000
	586	2	0.000000000	16.912798210	-7.410174202
	587	1	2.039000000	15.893298210	-9.176000000
	588	2	2.039000000	18.678624009	-8.429674202
	589	2	4.078000000	17.659124009	-10.195500000
	590	1	4.078000000	16.912798210	-7.410174202
	591	2	6.117000000	15.893298210	-9.176000000
	592	2	6.117000000	18.678624009	-8.429674202
	593	1	8.157000000	17.659124009	-10.195500000
	594	1	8.157000000	16.912798210	-7.410174202
	595	1	10.196000000	15.893298210	-9.176000000
	596	2	10.196000000	18.678624009	-8.429674202
	597	2	12.235000000	17.659124009	-10.195500000
	598	2	12.235000000	16.912798210	-7.410174202
	599	2	14.274000000	15.893298210	-9.176000000
	600	2	14.274000000	18.678624009	-8.429674202
	601	2	16.313000000	17.659124009	-10.195500000
	602	2	16.313000000	16.912798210	-7.410174202
	603	2	18.352000000	15.893298210	-9.176000000
	604	2	18.352000000	18.678624009	-8.429674202
	605	1	20.391000000	17.659124009	-10.195500000
	606	2	20.391000000	16.912798210	-7.410174202
	607	2	22.431000000	15.893298210	-9.176000000
	608	2	-22.431000000	17.932298210	-5.644348403
	609	2	-20.391000000	19.698124009	-6.663848403
	610	2	-20.391000000	18.951798210	-3.878522605
	611	2	-18.352000000	17.932298210	-5.644348403
	612	2	-18.352000000	20.717624009	-4.898022605
	613	2	-16.313000000	19.698124009	-6.663848403
	614	2	-16.313000000	18.951798210	-3.878522605
	615	1	-14.274000000	17.932298210	-5.644348403
	616	2	-14.274000000	20.717624009	-4.898022605
	617	2	-12.235000000	19.698124009	-6.663848403
	618	2	-12.235000000	18.951798210	-3.878522605
	619	2	-10.196000000	17.932298210	-5.644348403
	620	2	-10.196000000	20.717624009	-4.898022605
	621	2	-8.157000000	19.698124009	-6.663848403
	622	2	-8.157000000	18.951798210	-3.878522605
	623	2	-6.117000000	17.932298210	-5.644348403
	624	2	-6.117000000	20.717624009	-4.898022605
	625	2	-4.078000000	19.698124009	-6.663848403
	626	1	-4.078000000	18.951798210	-3.878522605
	627	2	-2.039000000	17.932298210	-5.644348403
	628	2	-2.039000000	20.717624009	-4.898022605
	629	1	0.000000000	19.698124009	-6.663848403
	630	2	0.000000000	18.951798210	-3.878522605
	631	1	2.039000000	17.932298210	-5.644348403
	632	2	2.039000000	20.717624009	-4.898022605
	633	1	4.078000000	19.698124009	-6.663848403
	634	2	4.078000000	18.951798210	-3.878522605
	635	1	6.117000000	17.932298210	-5.644348403
	636	2	6.117000000	20.717624009	-4.898022605
	637	2	8.157000000	19.698124009	-6.663848403
	638	2	8.157000000	18.951798210	-3.878522605
	639	2	10.196000000	17.932298210	-5.644348403
	640	2	10.196000000	20.717624009	-4.898022605
	641	1	12.235000000	19.698124009	-6.663848403
	642	2	12.235000000	18.951798210	-3.878522605
	643	2	14.274000000	17.932298210	-5.644348403
	644	2	14.274000000	20.717624009	-4.898022605
	645	2	16.313000000	19.698124009	-6.663848403