
        6699 atoms 
           2 atom types 
  -60.0000000       60.000000     xlo xhi 
  -60.0000000       60.000000     ylo yhi 
  -60.0000000       60.000000     zlo zhi 
 Atoms 

	1	1	0.000000000	0.000000000	0.000000000
	2	1	0.000000000	-2.872608556	0.251320683
	3	1	2.039000000	-1.561964620	-1.310643936
	4	1	2.039000000	-1.310643936	1.561964620
	5	1	-8.157000000	26.860934611	9.229067603
	6	1	-6.117000000	28.171578547	7.667102984
	7	1	-4.078000000	26.860934611	9.229067603
	8	1	-2.039000000	28.171578547	7.667102984
	9	1	0.000000000	26.860934611	9.229067603
	10	1	2.039000000	28.171578547	7.667102984
	11	1	4.078000000	26.860934611	9.229067603
	12	1	6.117000000	28.171578547	7.667102984
	13	1	8.157000000	26.860934611	9.229067603
	14	1	-12.235000000	24.239003951	12.353762887
	15	1	-10.196000000	25.550290675	10.791032223
	16	1	-8.157000000	24.239003951	12.353762887
	17	1	-6.117000000	25.550290675	10.791032223
	18	1	-6.117000000	25.800968571	13.664406823
	19	1	-4.078000000	27.112255294	12.101676159
	20	1	-4.078000000	24.239003951	12.353762887
	21	1	-2.039000000	25.550290675	10.791032223
	22	1	-2.039000000	25.800968571	13.664406823
	23	1	0.000000000	27.112255294	12.101676159
	24	1	0.000000000	24.239003951	12.353762887
	25	1	2.039000000	25.550290675	10.791032223
	26	1	2.039000000	25.800968571	13.664406823
	27	1	4.078000000	27.112255294	12.101676159
	28	1	4.078000000	24.239003951	12.353762887
	29	1	6.117000000	25.550290675	10.791032223
	30	1	6.117000000	25.800968571	13.664406823
	31	1	8.157000000	24.239003951	12.353762887
	32	1	10.196000000	25.550290675	10.791032223
	33	1	12.235000000	24.239003951	12.353762887
	34	1	-12.235000000	21.617716079	15.477692126
	35	1	-10.196000000	22.928360015	13.915727506
	36	1	-8.157000000	24.490324634	15.226371442
	37	1	-8.157000000	21.617716079	15.477692126
	38	1	-6.117000000	22.928360015	13.915727506
	39	1	-6.117000000	23.179680698	16.788336062
	40	1	-4.078000000	24.490324634	15.226371442
	41	1	-4.078000000	21.617716079	15.477692126
	42	1	-2.039000000	22.928360015	13.915727506
	43	1	-2.039000000	23.179680698	16.788336062
	44	1	0.000000000	24.490324634	15.226371442
	45	1	0.000000000	21.617716079	15.477692126
	46	1	2.039000000	22.928360015	13.915727506
	47	1	2.039000000	23.179680698	16.788336062
	48	1	4.078000000	24.490324634	15.226371442
	49	1	4.078000000	21.617716079	15.477692126
	50	1	6.117000000	22.928360015	13.915727506
	51	1	6.117000000	23.179680698	16.788336062
	52	1	8.157000000	24.490324634	15.226371442
	53	1	8.157000000	21.617716079	15.477692126
	54	1	10.196000000	22.928360015	13.915727506
	55	1	12.235000000	21.617716079	15.477692126
	56	1	-12.235000000	18.996428206	18.601621365
	57	1	-10.196000000	20.307072143	17.039656745
	58	1	-8.157000000	21.869036762	18.350300681
	59	1	-8.157000000	18.996428206	18.601621365
	60	1	-6.117000000	20.307072143	17.039656745
	61	1	-6.117000000	20.558392826	19.912265301
	62	1	-4.078000000	21.869036762	18.350300681
	63	1	-4.078000000	18.996428206	18.601621365
	64	1	-2.039000000	20.307072143	17.039656745
	65	1	-2.039000000	20.558392826	19.912265301
	66	1	0.000000000	21.869036762	18.350300681
	67	1	0.000000000	18.996428206	18.601621365
	68	1	2.039000000	20.307072143	17.039656745
	69	1	2.039000000	20.558392826	19.912265301
	70	1	4.078000000	21.869036762	18.350300681
	71	1	4.078000000	18.996428206	18.601621365
	72	1	6.117000000	20.307072143	17.039656745
	73	1	6.117000000	20.558392826	19.912265301
	74	1	8.157000000	21.869036762	18.350300681
	75	1	8.157000000	18.996428206	18.601621365
	76	1	10.196000000	20.307072143	17.039656745
	77	1	12.235000000	18.996428206	18.601621365
	78	1	-12.235000000	16.375140334	21.725550604
	79	1	-10.196000000	17.685784270	20.163585984
	80	1	-8.157000000	19.247748890	21.474229920
	81	1	-8.157000000	16.375140334	21.725550604
	82	1	-6.117000000	17.685784270	20.163585984
	83	1	-6.117000000	17.937104954	23.036194540
	84	1	-4.078000000	19.247748890	21.474229920
	85	1	-4.078000000	16.375140334	21.725550604
	86	1	-2.039000000	17.685784270	20.163585984
	87	1	-2.039000000	17.937104954	23.036194540
	88	1	0.000000000	19.247748890	21.474229920
	89	1	0.000000000	16.375140334	21.725550604
	90	1	2.039000000	17.685784270	20.163585984
	91	1	2.039000000	17.937104954	23.036194540
	92	1	4.078000000	19.247748890	21.474229920
	93	1	4.078000000	16.375140334	21.725550604
	94	1	6.117000000	17.685784270	20.163585984
	95	1	6.117000000	17.937104954	23.036194540
	96	1	8.157000000	19.247748890	21.474229920
	97	1	8.157000000	16.375140334	21.725550604
	98	1	10.196000000	17.685784270	20.163585984
	99	1	12.235000000	16.375140334	21.725550604
	100	1	-10.196000000	15.063853610	23.288281268
	101	1	-8.157000000	13.753209674	24.850245887
	102	1	-6.117000000	15.063853610	23.288281268
	103	1	-4.078000000	16.625818230	24.598925204
	104	1	-4.078000000	13.753209674	24.850245887
	105	1	-2.039000000	15.063853610	23.288281268
	106	1	0.000000000	16.625818230	24.598925204
	107	1	0.000000000	13.753209674	24.850245887
	108	1	2.039000000	15.063853610	23.288281268
	109	1	4.078000000	16.625818230	24.598925204
	110	1	4.078000000	13.753209674	24.850245887
	111	1	6.117000000	15.063853610	23.288281268
	112	1	8.157000000	13.753209674	24.850245887
	113	1	10.196000000	15.063853610	23.288281268
	114	1	-6.117000000	12.442565738	26.412210507
	115	1	-2.039000000	12.442565738	26.412210507
	116	1	2.039000000	12.442565738	26.412210507
	117	1	6.117000000	12.442565738	26.412210507
	118	1	-4.078000000	28.979581117	0.359921253
	119	1	0.000000000	28.979581117	0.359921253
	120	1	4.078000000	28.979581117	0.359921253
	121	1	-12.235000000	26.358293244	3.483850492
	122	1	-10.196000000	27.668937180	1.921885872
	123	1	-8.157000000	26.358293244	3.483850492
	124	1	-6.117000000	27.668937180	1.921885872
	125	1	-6.117000000	27.920257864	4.794494428
	126	1	-4.078000000	29.230901800	3.232529808
	127	1	-4.078000000	26.358293244	3.483850492
	128	1	-2.039000000	27.668937180	1.921885872
	129	1	-2.039000000	27.920257864	4.794494428
	130	1	0.000000000	29.230901800	3.232529808
	131	1	0.000000000	26.358293244	3.483850492
	132	1	2.039000000	27.668937180	1.921885872
	133	1	2.039000000	27.920257864	4.794494428
	134	1	4.078000000	29.230901800	3.232529808
	135	1	4.078000000	26.358293244	3.483850492
	136	1	6.117000000	27.668937180	1.921885872
	137	1	6.117000000	27.920257864	4.794494428
	138	1	8.157000000	26.358293244	3.483850492
	139	1	10.196000000	27.668937180	1.921885872
	140	1	12.235000000	26.358293244	3.483850492
	141	1	-16.313000000	23.737005372	6.607779731
	142	1	-14.274000000	25.047649308	5.045815111
	143	1	-12.235000000	26.609613928	6.356459047
	144	1	-12.235000000	23.737005372	6.607779731
	145	1	-10.196000000	25.047649308	5.045815111
	146	1	-10.196000000	25.298969991	7.918423667
	147	1	-8.157000000	26.609613928	6.356459047
	148	1	-8.157000000	23.737005372	6.607779731
	149	1	-6.117000000	25.047649308	5.045815111
	150	1	-6.117000000	25.298969991	7.918423667
	151	1	-4.078000000	26.609613928	6.356459047
	152	1	-4.078000000	23.737005372	6.607779731
	153	1	-2.039000000	25.047649308	5.045815111
	154	1	-2.039000000	25.298969991	7.918423667
	155	1	0.000000000	26.609613928	6.356459047
	156	1	0.000000000	23.737005372	6.607779731
	157	1	2.039000000	25.047649308	5.045815111
	158	1	2.039000000	25.298969991	7.918423667
	159	1	4.078000000	26.609613928	6.356459047
	160	1	4.078000000	23.737005372	6.607779731
	161	1	6.117000000	25.047649308	5.045815111
	162	1	6.117000000	25.298969991	7.918423667
	163	1	8.157000000	26.609613928	6.356459047
	164	1	8.157000000	23.737005372	6.607779731
	165	1	10.196000000	25.047649308	5.045815111
	166	1	10.196000000	25.298969991	7.918423667
	167	1	12.235000000	26.609613928	6.356459047
	168	1	12.235000000	23.737005372	6.607779731
	169	1	14.274000000	25.047649308	5.045815111
	170	1	16.313000000	23.737005372	6.607779731
	171	1	-16.313000000	21.115074712	9.732475014
	172	1	-14.274000000	22.426361436	8.169744350
	173	1	-14.274000000	22.677039332	11.043118950
	174	1	-12.235000000	23.988326055	9.480388287
	175	1	-12.235000000	21.115074712	9.732475014
	176	1	-10.196000000	22.426361436	8.169744350
	177	1	-10.196000000	22.677039332	11.043118950
	178	1	-8.157000000	23.988326055	9.480388287
	179	1	-8.157000000	21.115074712	9.732475014
	180	1	-6.117000000	22.426361436	8.169744350
	181	1	-6.117000000	22.677039332	11.043118950
	182	1	-4.078000000	23.988326055	9.480388287
	183	1	-4.078000000	21.115074712	9.732475014
	184	1	-2.039000000	22.426361436	8.169744350
	185	1	-2.039000000	22.677039332	11.043118950
	186	1	0.000000000	23.988326055	9.480388287
	187	1	0.000000000	21.115074712	9.732475014
	188	1	2.039000000	22.426361436	8.169744350
	189	1	2.039000000	22.677039332	11.043118950
	190	1	4.078000000	23.988326055	9.480388287
	191	1	4.078000000	21.115074712	9.732475014
	192	1	6.117000000	22.426361436	8.169744350
	193	1	6.117000000	22.677039332	11.043118950
	194	1	8.157000000	23.988326055	9.480388287
	195	1	8.157000000	21.115074712	9.732475014
	196	1	10.196000000	22.426361436	8.169744350
	197	1	10.196000000	22.677039332	11.043118950
	198	1	12.235000000	23.988326055	9.480388287
	199	1	12.235000000	21.115074712	9.732475014
	200	1	14.274000000	22.426361436	8.169744350
	201	1	14.274000000	22.677039332	11.043118950
	202	1	16.313000000	21.115074712	9.732475014
	203	1	-18.352000000	19.804430776	11.294439634
	204	1	-16.313000000	21.366395395	12.605083570
	205	1	-16.313000000	18.493786840	12.856404253
	206	1	-14.274000000	19.804430776	11.294439634
	207	1	-14.274000000	20.055751459	14.167048190
	208	1	-12.235000000	21.366395395	12.605083570
	209	1	-12.235000000	18.493786840	12.856404253
	210	1	-10.196000000	19.804430776	11.294439634
	211	1	-10.196000000	20.055751459	14.167048190
	212	1	-8.157000000	21.366395395	12.605083570
	213	1	-8.157000000	18.493786840	12.856404253
	214	1	-6.117000000	19.804430776	11.294439634
	215	1	-6.117000000	20.055751459	14.167048190
	216	1	-4.078000000	21.366395395	12.605083570
	217	1	-4.078000000	18.493786840	12.856404253
	218	1	-2.039000000	19.804430776	11.294439634
	219	1	-2.039000000	20.055751459	14.167048190
	220	2	0.000000000	21.366395395	12.605083570
	221	1	0.000000000	18.493786840	12.856404253
	222	1	2.039000000	19.804430776	11.294439634
	223	1	2.039000000	20.055751459	14.167048190
	224	1	4.078000000	21.366395395	12.605083570
	225	1	4.078000000	18.493786840	12.856404253
	226	1	6.117000000	19.804430776	11.294439634
	227	1	6.117000000	20.055751459	14.167048190
	228	1	8.157000000	21.366395395	12.605083570
	229	1	8.157000000	18.493786840	12.856404253
	230	1	10.196000000	19.804430776	11.294439634
	231	1	10.196000000	20.055751459	14.167048190
	232	1	12.235000000	21.366395395	12.605083570
	233	1	12.235000000	18.493786840	12.856404253
	234	1	14.274000000	19.804430776	11.294439634
	235	1	14.274000000	20.055751459	14.167048190
	236	1	16.313000000	21.366395395	12.605083570
	237	1	16.313000000	18.493786840	12.856404253
	238	1	18.352000000	19.804430776	11.294439634
	239	1	-18.352000000	17.183142904	14.418368873
	240	1	-16.313000000	18.745107523	15.729012809
	241	1	-16.313000000	15.872498967	15.980333492
	242	1	-14.274000000	17.183142904	14.418368873
	243	1	-14.274000000	17.434463587	17.290977429
	244	1	-12.235000000	18.745107523	15.729012809
	245	1	-12.235000000	15.872498967	15.980333492
	246	1	-10.196000000	17.183142904	14.418368873
	247	1	-10.196000000	17.434463587	17.290977429
	248	1	-8.157000000	18.745107523	15.729012809
	249	1	-8.157000000	15.872498967	15.980333492
	250	1	-6.117000000	17.183142904	14.418368873
	251	1	-6.117000000	17.434463587	17.290977429
	252	1	-4.078000000	18.745107523	15.729012809
	253	1	-4.078000000	15.872498967	15.980333492
	254	1	-2.039000000	17.183142904	14.418368873
	255	1	-2.039000000	17.434463587	17.290977429
	256	1	0.000000000	18.745107523	15.729012809
	257	2	0.000000000	15.872498967	15.980333492
	258	1	2.039000000	17.183142904	14.418368873
	259	1	2.039000000	17.434463587	17.290977429
	260	1	4.078000000	18.745107523	15.729012809
	261	1	4.078000000	15.872498967	15.980333492
	262	1	6.117000000	17.183142904	14.418368873
	263	1	6.117000000	17.434463587	17.290977429
	264	1	8.157000000	18.745107523	15.729012809
	265	2	8.157000000	15.872498967	15.980333492
	266	1	10.196000000	17.183142904	14.418368873
	267	1	10.196000000	17.434463587	17.290977429
	268	1	12.235000000	18.745107523	15.729012809
	269	1	12.235000000	15.872498967	15.980333492
	270	1	14.274000000	17.183142904	14.418368873
	271	1	14.274000000	17.434463587	17.290977429
	272	1	16.313000000	18.745107523	15.729012809
	273	1	16.313000000	15.872498967	15.980333492
	274	1	18.352000000	17.183142904	14.418368873
	275	1	-18.352000000	14.561855031	17.542298112
	276	1	-16.313000000	16.123819651	18.852942048
	277	1	-16.313000000	13.251211095	19.104262731
	278	1	-14.274000000	14.561855031	17.542298112
	279	1	-14.274000000	14.813175715	20.414906668
	280	1	-12.235000000	16.123819651	18.852942048
	281	1	-12.235000000	13.251211095	19.104262731
	282	1	-10.196000000	14.561855031	17.542298112
	283	1	-10.196000000	14.813175715	20.414906668
	284	1	-8.157000000	16.123819651	18.852942048
	285	1	-8.157000000	13.251211095	19.104262731
	286	1	-6.117000000	14.561855031	17.542298112
	287	1	-6.117000000	14.813175715	20.414906668
	288	1	-4.078000000	16.123819651	18.852942048
	289	1	-4.078000000	13.251211095	19.104262731
	290	1	-2.039000000	14.561855031	17.542298112
	291	1	-2.039000000	14.813175715	20.414906668
	292	1	0.000000000	16.123819651	18.852942048
	293	1	0.000000000	13.251211095	19.104262731
	294	1	2.039000000	14.561855031	17.542298112
	295	1	2.039000000	14.813175715	20.414906668
	296	1	4.078000000	16.123819651	18.852942048
	297	1	4.078000000	13.251211095	19.104262731
	298	1	6.117000000	14.561855031	17.542298112
	299	1	6.117000000	14.813175715	20.414906668
	300	1	8.157000000	16.123819651	18.852942048
	301	1	8.157000000	13.251211095	19.104262731
	302	1	10.196000000	14.561855031	17.542298112
	303	1	10.196000000	14.813175715	20.414906668
	304	1	12.235000000	16.123819651	18.852942048
	305	1	12.235000000	13.251211095	19.104262731
	306	1	14.274000000	14.561855031	17.542298112
	307	1	14.274000000	14.813175715	20.414906668
	308	1	16.313000000	16.123819651	18.852942048
	309	1	16.313000000	13.251211095	19.104262731
	310	1	18.352000000	14.561855031	17.542298112
	311	1	-16.313000000	10.629280435	22.228958015
	312	1	-14.274000000	11.939924371	20.666993395
	313	1	-12.235000000	13.501888991	21.977637332
	314	1	-12.235000000	10.629280435	22.228958015
	315	1	-10.196000000	11.939924371	20.666993395
	316	1	-10.196000000	12.191245055	23.539601951
	317	1	-8.157000000	13.501888991	21.977637332
	318	1	-8.157000000	10.629280435	22.228958015
	319	1	-6.117000000	11.939924371	20.666993395
	320	1	-6.117000000	12.191245055	23.539601951
	321	1	-4.078000000	13.501888991	21.977637332
	322	1	-4.078000000	10.629280435	22.228958015
	323	1	-2.039000000	11.939924371	20.666993395
	324	1	-2.039000000	12.191245055	23.539601951
	325	1	0.000000000	13.501888991	21.977637332
	326	1	0.000000000	10.629280435	22.228958015
	327	1	2.039000000	11.939924371	20.666993395
	328	1	2.039000000	12.191245055	23.539601951
	329	1	4.078000000	13.501888991	21.977637332
	330	1	4.078000000	10.629280435	22.228958015
	331	1	6.117000000	11.939924371	20.666993395
	332	1	6.117000000	12.191245055	23.539601951
	333	1	8.157000000	13.501888991	21.977637332
	334	1	8.157000000	10.629280435	22.228958015
	335	1	10.196000000	11.939924371	20.666993395
	336	1	10.196000000	12.191245055	23.539601951
	337	1	12.235000000	13.501888991	21.977637332
	338	1	12.235000000	10.629280435	22.228958015
	339	1	14.274000000	11.939924371	20.666993395
	340	1	16.313000000	10.629280435	22.228958015
	341	1	-14.274000000	9.318636499	23.790922634
	342	1	-12.235000000	10.880601119	25.101566571
	343	1	-12.235000000	8.007992563	25.352887254
	344	1	-10.196000000	9.318636499	23.790922634
	345	1	-8.157000000	10.880601119	25.101566571
	346	1	-8.157000000	8.007992563	25.352887254
	347	1	-6.117000000	9.318636499	23.790922634
	348	1	-6.117000000	9.569957182	26.663531190
	349	1	-4.078000000	10.880601119	25.101566571
	350	1	-4.078000000	8.007992563	25.352887254
	351	1	-2.039000000	9.318636499	23.790922634
	352	1	-2.039000000	9.569957182	26.663531190
	353	1	0.000000000	10.880601119	25.101566571
	354	1	0.000000000	8.007992563	25.352887254
	355	1	2.039000000	9.318636499	23.790922634
	356	1	2.039000000	9.569957182	26.663531190
	357	1	4.078000000	10.880601119	25.101566571
	358	1	4.078000000	8.007992563	25.352887254
	359	1	6.117000000	9.318636499	23.790922634
	360	1	6.117000000	9.569957182	26.663531190
	361	1	8.157000000	10.880601119	25.101566571
	362	1	8.157000000	8.007992563	25.352887254
	363	1	10.196000000	9.318636499	23.790922634
	364	1	12.235000000	10.880601119	25.101566571
	365	1	12.235000000	8.007992563	25.352887254
	366	1	14.274000000	9.318636499	23.790922634
	367	1	-10.196000000	6.697348627	26.914851873
	368	1	-6.117000000	6.697348627	26.914851873
	369	1	-4.078000000	8.259313246	28.225495810
	370	1	-4.078000000	5.386704691	28.476816493
	371	1	-2.039000000	6.697348627	26.914851873
	372	1	0.000000000	8.259313246	28.225495810
	373	1	0.000000000	5.386704691	28.476816493
	374	1	2.039000000	6.697348627	26.914851873
	375	1	4.078000000	8.259313246	28.225495810
	376	1	4.078000000	5.386704691	28.476816493
	377	1	6.117000000	6.697348627	26.914851873
	378	1	10.196000000	6.697348627	26.914851873
	379	1	-4.078000000	28.476816493	-5.386704691
	380	1	0.000000000	28.476816493	-5.386704691
	381	1	4.078000000	28.476816493	-5.386704691
	382	1	-12.235000000	25.854885833	-2.262009407
	383	1	-10.196000000	27.165529769	-3.823974027
	384	1	-10.196000000	27.416850453	-0.951365471
	385	1	-8.157000000	28.727494389	-2.513330091
	386	1	-8.157000000	25.854885833	-2.262009407
	387	1	-6.117000000	27.165529769	-3.823974027
	388	1	-6.117000000	27.416850453	-0.951365471
	389	1	-4.078000000	28.727494389	-2.513330091
	390	1	-4.078000000	25.854885833	-2.262009407
	391	1	-2.039000000	27.165529769	-3.823974027
	392	1	-2.039000000	27.416850453	-0.951365471
	393	1	0.000000000	28.727494389	-2.513330091
	394	1	0.000000000	25.854885833	-2.262009407
	395	1	2.039000000	27.165529769	-3.823974027
	396	1	2.039000000	27.416850453	-0.951365471
	397	1	4.078000000	28.727494389	-2.513330091
	398	1	4.078000000	25.854885833	-2.262009407
	399	1	6.117000000	27.165529769	-3.823974027
	400	1	6.117000000	27.416850453	-0.951365471
	401	1	8.157000000	28.727494389	-2.513330091
	402	1	8.157000000	25.854885833	-2.262009407
	403	1	10.196000000	27.165529769	-3.823974027
	404	1	10.196000000	27.416850453	-0.951365471
	405	1	12.235000000	25.854885833	-2.262009407
	406	1	-16.313000000	23.233597961	0.861919832
	407	1	-14.274000000	24.544241897	-0.700044788
	408	1	-14.274000000	24.795562580	2.172563768
	409	1	-12.235000000	26.106206516	0.610599149
	410	1	-12.235000000	23.233597961	0.861919832
	411	1	-10.196000000	24.544241897	-0.700044788
	412	1	-10.196000000	24.795562580	2.172563768
	413	1	-8.157000000	26.106206516	0.610599149
	414	1	-8.157000000	23.233597961	0.861919832
	415	1	-6.117000000	24.544241897	-0.700044788
	416	1	-6.117000000	24.795562580	2.172563768
	417	1	-4.078000000	26.106206516	0.610599149
	418	1	-4.078000000	23.233597961	0.861919832
	419	1	-2.039000000	24.544241897	-0.700044788
	420	1	-2.039000000	24.795562580	2.172563768
	421	1	0.000000000	26.106206516	0.610599149
	422	1	0.000000000	23.233597961	0.861919832
	423	1	2.039000000	24.544241897	-0.700044788
	424	1	2.039000000	24.795562580	2.172563768
	425	1	4.078000000	26.106206516	0.610599149
	426	1	4.078000000	23.233597961	0.861919832
	427	1	6.117000000	24.544241897	-0.700044788
	428	1	6.117000000	24.795562580	2.172563768
	429	1	8.157000000	26.106206516	0.610599149
	430	1	8.157000000	23.233597961	0.861919832
	431	1	10.196000000	24.544241897	-0.700044788
	432	1	10.196000000	24.795562580	2.172563768
	433	1	12.235000000	26.106206516	0.610599149
	434	1	12.235000000	23.233597961	0.861919832
	435	1	14.274000000	24.544241897	-0.700044788
	436	1	14.274000000	24.795562580	2.172563768
	437	1	16.313000000	23.233597961	0.861919832
	438	1	-20.391000000	20.612310088	3.985849071
	439	1	-18.352000000	21.922954025	2.423884451
	440	1	-18.352000000	22.174274708	5.296493007
	441	1	-16.313000000	23.484918644	3.734528388
	442	1	-16.313000000	20.612310088	3.985849071
	443	1	-14.274000000	21.922954025	2.423884451
	444	1	-14.274000000	22.174274708	5.296493007
	445	1	-12.235000000	23.484918644	3.734528388
	446	1	-12.235000000	20.612310088	3.985849071
	447	1	-10.196000000	21.922954025	2.423884451
	448	1	-10.196000000	22.174274708	5.296493007
	449	1	-8.157000000	23.484918644	3.734528388
	450	1	-8.157000000	20.612310088	3.985849071
	451	1	-6.117000000	21.922954025	2.423884451
	452	1	-6.117000000	22.174274708	5.296493007
	453	1	-4.078000000	23.484918644	3.734528388
	454	1	-4.078000000	20.612310088	3.985849071
	455	2	-2.039000000	21.922954025	2.423884451
	456	1	-2.039000000	22.174274708	5.296493007
	457	1	0.000000000	23.484918644	3.734528388
	458	1	0.000000000	20.612310088	3.985849071
	459	1	2.039000000	21.922954025	2.423884451
	460	1	2.039000000	22.174274708	5.296493007
	461	1	4.078000000	23.484918644	3.734528388
	462	1	4.078000000	20.612310088	3.985849071
	463	1	6.117000000	21.922954025	2.423884451
	464	1	6.117000000	22.174274708	5.296493007
	465	1	8.157000000	23.484918644	3.734528388
	466	1	8.157000000	20.612310088	3.985849071
	467	1	10.196000000	21.922954025	2.423884451
	468	1	10.196000000	22.174274708	5.296493007
	469	1	12.235000000	23.484918644	3.734528388
	470	1	12.235000000	20.612310088	3.985849071
	471	1	14.274000000	21.922954025	2.423884451
	472	1	14.274000000	22.174274708	5.296493007
	473	1	16.313000000	23.484918644	3.734528388
	474	1	16.313000000	20.612310088	3.985849071
	475	1	18.352000000	21.922954025	2.423884451
	476	1	18.352000000	22.174274708	5.296493007
	477	1	20.391000000	20.612310088	3.985849071
	478	1	-20.391000000	20.863630772	6.858457627
	479	1	-20.391000000	17.990379429	7.110544354
	480	1	-18.352000000	19.301666152	5.547813690
	481	1	-18.352000000	19.552344048	8.421188291
	482	1	-16.313000000	20.863630772	6.858457627
	483	1	-16.313000000	17.990379429	7.110544354
	484	1	-14.274000000	19.301666152	5.547813690
	485	1	-14.274000000	19.552344048	8.421188291
	486	1	-12.235000000	20.863630772	6.858457627
	487	1	-12.235000000	17.990379429	7.110544354
	488	1	-10.196000000	19.301666152	5.547813690
	489	1	-10.196000000	19.552344048	8.421188291
	490	1	-8.157000000	20.863630772	6.858457627
	491	2	-8.157000000	17.990379429	7.110544354
	492	1	-6.117000000	19.301666152	5.547813690
	493	1	-6.117000000	19.552344048	8.421188291
	494	2	-4.078000000	20.863630772	6.858457627
	495	1	-4.078000000	17.990379429	7.110544354
	496	1	-2.039000000	19.301666152	5.547813690
	497	1	-2.039000000	19.552344048	8.421188291
	498	1	0.000000000	20.863630772	6.858457627
	499	1	0.000000000	17.990379429	7.110544354
	500	1	2.039000000	19.301666152	5.547813690
	501	1	2.039000000	19.552344048	8.421188291
	502	1	4.078000000	20.863630772	6.858457627
	503	1	4.078000000	17.990379429	7.110544354
	504	1	6.117000000	19.301666152	5.547813690
	505	1	6.117000000	19.552344048	8.421188291
	506	1	8.157000000	20.863630772	6.858457627
	507	2	8.157000000	17.990379429	7.110544354
	508	1	10.196000000	19.301666152	5.547813690
	509	1	10.196000000	19.552344048	8.421188291
	510	1	12.235000000	20.863630772	6.858457627
	511	1	12.235000000	17.990379429	7.110544354
	512	1	14.274000000	19.301666152	5.547813690
	513	1	14.274000000	19.552344048	8.421188291
	514	1	16.313000000	20.863630772	6.858457627
	515	1	16.313000000	17.990379429	7.110544354
	516	1	18.352000000	19.301666152	5.547813690
	517	1	18.352000000	19.552344048	8.421188291
	518	1	20.391000000	20.863630772	6.858457627
	519	1	20.391000000	17.990379429	7.110544354
	520	1	-22.431000000	16.679735492	8.672508974
	521	1	-20.391000000	18.241700112	9.983152910
	522	1	-20.391000000	15.369091556	10.234473593
	523	1	-18.352000000	16.679735492	8.672508974
	524	1	-18.352000000	16.931056176	11.545117530
	525	1	-16.313000000	18.241700112	9.983152910
	526	1	-16.313000000	15.369091556	10.234473593
	527	1	-14.274000000	16.679735492	8.672508974
	528	1	-14.274000000	16.931056176	11.545117530
	529	1	-12.235000000	18.241700112	9.983152910
	530	1	-12.235000000	15.369091556	10.234473593
	531	1	-10.196000000	16.679735492	8.672508974
	532	1	-10.196000000	16.931056176	11.545117530
	533	2	-8.157000000	18.241700112	9.983152910
	534	1	-8.157000000	15.369091556	10.234473593
	535	1	-6.117000000	16.679735492	8.672508974
	536	1	-6.117000000	16.931056176	11.545117530
	537	1	-4.078000000	18.241700112	9.983152910
	538	1	-4.078000000	15.369091556	10.234473593
	539	2	-2.039000000	16.679735492	8.672508974
	540	2	-2.039000000	16.931056176	11.545117530
	541	1	0.000000000	18.241700112	9.983152910
	542	1	0.000000000	15.369091556	10.234473593
	543	1	2.039000000	16.679735492	8.672508974
	544	1	2.039000000	16.931056176	11.545117530
	545	2	4.078000000	18.241700112	9.983152910
	546	1	4.078000000	15.369091556	10.234473593
	547	1	6.117000000	16.679735492	8.672508974
	548	2	6.117000000	16.931056176	11.545117530
	549	1	8.157000000	18.241700112	9.983152910
	550	1	8.157000000	15.369091556	10.234473593
	551	1	10.196000000	16.679735492	8.672508974
	552	1	10.196000000	16.931056176	11.545117530
	553	1	12.235000000	18.241700112	9.983152910
	554	1	12.235000000	15.369091556	10.234473593
	555	1	14.274000000	16.679735492	8.672508974
	556	1	14.274000000	16.931056176	11.545117530
	557	1	16.313000000	18.241700112	9.983152910
	558	1	16.313000000	15.369091556	10.234473593
	559	1	18.352000000	16.679735492	8.672508974
	560	1	18.352000000	16.931056176	11.545117530
	561	1	20.391000000	18.241700112	9.983152910
	562	1	20.391000000	15.369091556	10.234473593
	563	1	22.431000000	16.679735492	8.672508974
	564	1	-22.431000000	14.058447620	11.796438213
	565	1	-20.391000000	15.620412240	13.107082149
	566	1	-20.391000000	12.747803684	13.358402832
	567	1	-18.352000000	14.058447620	11.796438213
	568	1	-18.352000000	14.309768303	14.669046769
	569	1	-16.313000000	15.620412240	13.107082149
	570	1	-16.313000000	12.747803684	13.358402832
	571	1	-14.274000000	14.058447620	11.796438213
	572	1	-14.274000000	14.309768303	14.669046769
	573	1	-12.235000000	15.620412240	13.107082149
	574	1	-12.235000000	12.747803684	13.358402832
	575	1	-10.196000000	14.058447620	11.796438213
	576	1	-10.196000000	14.309768303	14.669046769
	577	1	-8.157000000	15.620412240	13.107082149
	578	2	-8.157000000	12.747803684	13.358402832
	579	1	-6.117000000	14.058447620	11.796438213
	580	1	-6.117000000	14.309768303	14.669046769
	581	1	-4.078000000	15.620412240	13.107082149
	582	1	-4.078000000	12.747803684	13.358402832
	583	1	-2.039000000	14.058447620	11.796438213
	584	1	-2.039000000	14.309768303	14.669046769
	585	1	0.000000000	15.620412240	13.107082149
	586	2	0.000000000	12.747803684	13.358402832
	587	1	2.039000000	14.058447620	11.796438213
	588	1	2.039000000	14.309768303	14.669046769
	589	1	4.078000000	15.620412240	13.107082149
	590	2	4.078000000	12.747803684	13.358402832
	591	1	6.117000000	14.058447620	11.796438213
	592	1	6.117000000	14.309768303	14.669046769
	593	1	8.157000000	15.620412240	13.107082149
	594	1	8.157000000	12.747803684	13.358402832
	595	2	10.196000000	14.058447620	11.796438213
	596	1	10.196000000	14.309768303	14.669046769
	597	1	12.235000000	15.620412240	13.107082149
	598	1	12.235000000	12.747803684	13.358402832
	599	1	14.274000000	14.058447620	11.796438213
	600	1	14.274000000	14.309768303	14.669046769
	601	1	16.313000000	15.620412240	13.107082149
	602	1	16.313000000	12.747803684	13.358402832
	603	1	18.352000000	14.058447620	11.796438213
	604	1	18.352000000	14.309768303	14.669046769
	605	1	20.391000000	15.620412240	13.107082149
	606	1	20.391000000	12.747803684	13.358402832
	607	1	22.431000000	14.058447620	11.796438213
	608	1	-22.431000000	11.437159748	14.920367452
	609	1	-20.391000000	12.999124367	16.231011388
	610	1	-20.391000000	10.126515812	16.482332072
	611	1	-18.352000000	11.437159748	14.920367452
	612	1	-18.352000000	11.688480431	17.792976008
	613	1	-16.313000000	12.999124367	16.231011388
	614	1	-16.313000000	10.126515812	16.482332072
	615	1	-14.274000000	11.437159748	14.920367452
	616	1	-14.274000000	11.688480431	17.792976008
	617	1	-12.235000000	12.999124367	16.231011388
	618	1	-12.235000000	10.126515812	16.482332072
	619	1	-10.196000000	11.437159748	14.920367452
	620	1	-10.196000000	11.688480431	17.792976008
	621	2	-8.157000000	12.999124367	16.231011388
	622	1	-8.157000000	10.126515812	16.482332072
	623	1	-6.117000000	11.437159748	14.920367452
	624	1	-6.117000000	11.688480431	17.792976008
	625	2	-4.078000000	12.999124367	16.231011388
	626	1	-4.078000000	10.126515812	16.482332072
	627	2	-2.039000000	11.437159748	14.920367452
	628	1	-2.039000000	11.688480431	17.792976008
	629	1	0.000000000	12.999124367	16.231011388
	630	2	0.000000000	10.126515812	16.482332072
	631	1	2.039000000	11.437159748	14.920367452
	632	1	2.039000000	11.688480431	17.792976008
	633	1	4.078000000	12.999124367	16.231011388
	634	1	4.078000000	10.126515812	16.482332072
	635	1	6.117000000	11.437159748	14.920367452
	636	1	6.117000000	11.688480431	17.792976008
	637	1	8.157000000	12.999124367	16.231011388
	638	1	8.157000000	10.126515812	16.482332072
	639	1	10.196000000	11.437159748	14.920367452
	640	1	10.196000000	11.688480431	17.792976008
	641	1	12.235000000	12.999124367	16.231011388
	642	1	12.235000000	10.126515812	16.482332072
	643	1	14.274000000	11.437159748	14.920367452
	644	1	14.274000000	11.688480431	17.792976008
	645	1	16.313000000	12.999124367	16.231011388
	646	1	16.313000000	10.126515812	16.482332072
	647	1	18.352000000	11.437159748	14.920367452
	648	1	18.352000000	11.688480431	17.792976008
	649	1	20.391000000	12.999124367	16.231011388
	650	1	20.391000000	10.126515812	16.482332072
	651	1	22.431000000	11.437159748	14.920367452
	652	1	-20.391000000	10.377193707	19.355706672
	653	1	-20.391000000	7.504585152	19.607027355
	654	1	-18.352000000	8.815229088	18.045062735
	655	1	-18.352000000	9.066549771	20.917671291
	656	1	-16.313000000	10.377193707	19.355706672
	657	1	-16.313000000	7.504585152	19.607027355