
        6699 atoms 
           2 atom types 
  -60.0000000       60.000000     xlo xhi 
  -60.0000000       60.000000     ylo yhi 
  -60.0000000       60.000000     zlo zhi 
 Atoms 

	1	1	0.000000000	0.000000000	0.000000000
	2	1	0.000000000	-2.497254793	-1.441790727
	3	1	2.039000000	-0.527732033	-1.969522760
	4	1	2.039000000	-1.969522760	0.527732033
	5	1	-8.157000000	16.709613791	22.966808745
	6	1	-6.117000000	18.679136551	22.439076712
	7	1	-4.078000000	16.709613791	22.966808745
	8	1	-2.039000000	18.679136551	22.439076712
	9	1	0.000000000	16.709613791	22.966808745
	10	1	2.039000000	18.679136551	22.439076712
	11	1	4.078000000	16.709613791	22.966808745
	12	1	6.117000000	18.679136551	22.439076712
	13	1	8.157000000	16.709613791	22.966808745
	14	1	-12.235000000	12.769602346	24.022531630
	15	1	-10.196000000	14.740091032	23.494540778
	16	1	-8.157000000	12.769602346	24.022531630
	17	1	-6.117000000	14.740091032	23.494540778
	18	1	-6.117000000	13.297334379	25.992054390
	19	1	-4.078000000	15.267823065	25.464063538
	20	1	-4.078000000	12.769602346	24.022531630
	21	1	-2.039000000	14.740091032	23.494540778
	22	1	-2.039000000	13.297334379	25.992054390
	23	1	0.000000000	15.267823065	25.464063538
	24	1	0.000000000	12.769602346	24.022531630
	25	1	2.039000000	14.740091032	23.494540778
	26	1	2.039000000	13.297334379	25.992054390
	27	1	4.078000000	15.267823065	25.464063538
	28	1	4.078000000	12.769602346	24.022531630
	29	1	6.117000000	14.740091032	23.494540778
	30	1	6.117000000	13.297334379	25.992054390
	31	1	8.157000000	12.769602346	24.022531630
	32	1	10.196000000	14.740091032	23.494540778
	33	1	12.235000000	12.769602346	24.022531630
	34	1	-12.235000000	8.830556826	25.077995696
	35	1	-10.196000000	10.800079586	24.550263663
	36	1	-8.157000000	11.327811619	26.519786423
	37	1	-8.157000000	8.830556826	25.077995696
	38	1	-6.117000000	10.800079586	24.550263663
	39	1	-6.117000000	9.358288859	27.047518456
	40	1	-4.078000000	11.327811619	26.519786423
	41	1	-4.078000000	8.830556826	25.077995696
	42	1	-2.039000000	10.800079586	24.550263663
	43	1	-2.039000000	9.358288859	27.047518456
	44	1	0.000000000	11.327811619	26.519786423
	45	1	0.000000000	8.830556826	25.077995696
	46	1	2.039000000	10.800079586	24.550263663
	47	1	2.039000000	9.358288859	27.047518456
	48	1	4.078000000	11.327811619	26.519786423
	49	1	4.078000000	8.830556826	25.077995696
	50	1	6.117000000	10.800079586	24.550263663
	51	1	6.117000000	9.358288859	27.047518456
	52	1	8.157000000	11.327811619	26.519786423
	53	1	8.157000000	8.830556826	25.077995696
	54	1	10.196000000	10.800079586	24.550263663
	55	1	12.235000000	8.830556826	25.077995696
	56	1	-12.235000000	4.891511307	26.133459762
	57	1	-10.196000000	6.861034067	25.605727729
	58	1	-8.157000000	7.388766100	27.575250489
	59	1	-8.157000000	4.891511307	26.133459762
	60	1	-6.117000000	6.861034067	25.605727729
	61	1	-6.117000000	5.419243340	28.102982522
	62	1	-4.078000000	7.388766100	27.575250489
	63	1	-4.078000000	4.891511307	26.133459762
	64	1	-2.039000000	6.861034067	25.605727729
	65	1	-2.039000000	5.419243340	28.102982522
	66	1	0.000000000	7.388766100	27.575250489
	67	1	0.000000000	4.891511307	26.133459762
	68	1	2.039000000	6.861034067	25.605727729
	69	1	2.039000000	5.419243340	28.102982522
	70	1	4.078000000	7.388766100	27.575250489
	71	1	4.078000000	4.891511307	26.133459762
	72	1	6.117000000	6.861034067	25.605727729
	73	1	6.117000000	5.419243340	28.102982522
	74	1	8.157000000	7.388766100	27.575250489
	75	1	8.157000000	4.891511307	26.133459762
	76	1	10.196000000	6.861034067	25.605727729
	77	1	12.235000000	4.891511307	26.133459762
	78	1	-12.235000000	0.952465787	27.188923828
	79	1	-10.196000000	2.921988547	26.661191795
	80	1	-8.157000000	3.449720580	28.630714555
	81	1	-8.157000000	0.952465787	27.188923828
	82	1	-6.117000000	2.921988547	26.661191795
	83	1	-6.117000000	1.480197820	29.158446588
	84	1	-4.078000000	3.449720580	28.630714555
	85	1	-4.078000000	0.952465787	27.188923828
	86	1	-2.039000000	2.921988547	26.661191795
	87	1	-2.039000000	1.480197820	29.158446588
	88	1	0.000000000	3.449720580	28.630714555
	89	1	0.000000000	0.952465787	27.188923828
	90	1	2.039000000	2.921988547	26.661191795
	91	1	2.039000000	1.480197820	29.158446588
	92	1	4.078000000	3.449720580	28.630714555
	93	1	4.078000000	0.952465787	27.188923828
	94	1	6.117000000	2.921988547	26.661191795
	95	1	6.117000000	1.480197820	29.158446588
	96	1	8.157000000	3.449720580	28.630714555
	97	1	8.157000000	0.952465787	27.188923828
	98	1	10.196000000	2.921988547	26.661191795
	99	1	12.235000000	0.952465787	27.188923828
	100	1	-10.196000000	-1.018022898	27.716914680
	101	1	-8.157000000	-2.987545658	28.244646713
	102	1	-6.117000000	-1.018022898	27.716914680
	103	1	-4.078000000	-0.490290865	29.686437440
	104	1	-4.078000000	-2.987545658	28.244646713
	105	1	-2.039000000	-1.018022898	27.716914680
	106	1	0.000000000	-0.490290865	29.686437440
	107	1	0.000000000	-2.987545658	28.244646713
	108	1	2.039000000	-1.018022898	27.716914680
	109	1	4.078000000	-0.490290865	29.686437440
	110	1	4.078000000	-2.987545658	28.244646713
	111	1	6.117000000	-1.018022898	27.716914680
	112	1	8.157000000	-2.987545658	28.244646713
	113	1	10.196000000	-1.018022898	27.716914680
	114	1	-6.117000000	-4.957068418	28.772378746
	115	1	-2.039000000	-4.957068418	28.772378746
	116	1	2.039000000	-4.957068418	28.772378746
	117	1	6.117000000	-4.957068418	28.772378746
	118	1	-4.078000000	23.532240765	16.916835094
	119	1	0.000000000	23.532240765	16.916835094
	120	1	4.078000000	23.532240765	16.916835094
	121	1	-12.235000000	19.593195245	17.972299160
	122	1	-10.196000000	21.562718005	17.444567127
	123	1	-8.157000000	19.593195245	17.972299160
	124	1	-6.117000000	21.562718005	17.444567127
	125	1	-6.117000000	20.120927278	19.941821920
	126	1	-4.078000000	22.090450038	19.414089887
	127	1	-4.078000000	19.593195245	17.972299160
	128	1	-2.039000000	21.562718005	17.444567127
	129	1	-2.039000000	20.120927278	19.941821920
	130	1	0.000000000	22.090450038	19.414089887
	131	1	0.000000000	19.593195245	17.972299160
	132	1	2.039000000	21.562718005	17.444567127
	133	1	2.039000000	20.120927278	19.941821920
	134	1	4.078000000	22.090450038	19.414089887
	135	1	4.078000000	19.593195245	17.972299160
	136	1	6.117000000	21.562718005	17.444567127
	137	1	6.117000000	20.120927278	19.941821920
	138	1	8.157000000	19.593195245	17.972299160
	139	1	10.196000000	21.562718005	17.444567127
	140	1	12.235000000	19.593195245	17.972299160
	141	1	-16.313000000	15.654149726	19.027763226
	142	1	-14.274000000	17.623672485	18.500031193
	143	1	-12.235000000	18.151404518	20.469553952
	144	1	-12.235000000	15.654149726	19.027763226
	145	1	-10.196000000	17.623672485	18.500031193
	146	1	-10.196000000	16.181881759	20.997285985
	147	1	-8.157000000	18.151404518	20.469553952
	148	1	-8.157000000	15.654149726	19.027763226
	149	1	-6.117000000	17.623672485	18.500031193
	150	1	-6.117000000	16.181881759	20.997285985
	151	1	-4.078000000	18.151404518	20.469553952
	152	1	-4.078000000	15.654149726	19.027763226
	153	1	-2.039000000	17.623672485	18.500031193
	154	1	-2.039000000	16.181881759	20.997285985
	155	1	0.000000000	18.151404518	20.469553952
	156	1	0.000000000	15.654149726	19.027763226
	157	1	2.039000000	17.623672485	18.500031193
	158	1	2.039000000	16.181881759	20.997285985
	159	1	4.078000000	18.151404518	20.469553952
	160	1	4.078000000	15.654149726	19.027763226
	161	1	6.117000000	17.623672485	18.500031193
	162	1	6.117000000	16.181881759	20.997285985
	163	1	8.157000000	18.151404518	20.469553952
	164	1	8.157000000	15.654149726	19.027763226
	165	1	10.196000000	17.623672485	18.500031193
	166	1	10.196000000	16.181881759	20.997285985
	167	1	12.235000000	18.151404518	20.469553952
	168	1	12.235000000	15.654149726	19.027763226
	169	1	14.274000000	17.623672485	18.500031193
	170	1	16.313000000	15.654149726	19.027763226
	171	1	-16.313000000	11.714138280	20.083486111
	172	1	-14.274000000	13.684626966	19.555495259
	173	1	-14.274000000	12.241870313	22.053008870
	174	1	-12.235000000	14.212358999	21.525018018
	175	1	-12.235000000	11.714138280	20.083486111
	176	1	-10.196000000	13.684626966	19.555495259
	177	1	-10.196000000	12.241870313	22.053008870
	178	1	-8.157000000	14.212358999	21.525018018
	179	1	-8.157000000	11.714138280	20.083486111
	180	1	-6.117000000	13.684626966	19.555495259
	181	1	-6.117000000	12.241870313	22.053008870
	182	1	-4.078000000	14.212358999	21.525018018
	183	1	-4.078000000	11.714138280	20.083486111
	184	1	-2.039000000	13.684626966	19.555495259
	185	1	-2.039000000	12.241870313	22.053008870
	186	1	0.000000000	14.212358999	21.525018018
	187	1	0.000000000	11.714138280	20.083486111
	188	1	2.039000000	13.684626966	19.555495259
	189	1	2.039000000	12.241870313	22.053008870
	190	1	4.078000000	14.212358999	21.525018018
	191	1	4.078000000	11.714138280	20.083486111
	192	1	6.117000000	13.684626966	19.555495259
	193	1	6.117000000	12.241870313	22.053008870
	194	1	8.157000000	14.212358999	21.525018018
	195	1	8.157000000	11.714138280	20.083486111
	196	1	10.196000000	13.684626966	19.555495259
	197	1	10.196000000	12.241870313	22.053008870
	198	1	12.235000000	14.212358999	21.525018018
	199	1	12.235000000	11.714138280	20.083486111
	200	1	14.274000000	13.684626966	19.555495259
	201	1	14.274000000	12.241870313	22.053008870
	202	1	16.313000000	11.714138280	20.083486111
	203	1	-18.352000000	9.744615520	20.611218144
	204	1	-16.313000000	10.272347553	22.580740903
	205	1	-16.313000000	7.775092760	21.138950177
	206	1	-14.274000000	9.744615520	20.611218144
	207	1	-14.274000000	8.302824793	23.108472936
	208	1	-12.235000000	10.272347553	22.580740903
	209	1	-12.235000000	7.775092760	21.138950177
	210	1	-10.196000000	9.744615520	20.611218144
	211	1	-10.196000000	8.302824793	23.108472936
	212	1	-8.157000000	10.272347553	22.580740903
	213	1	-8.157000000	7.775092760	21.138950177
	214	1	-6.117000000	9.744615520	20.611218144
	215	1	-6.117000000	8.302824793	23.108472936
	216	1	-4.078000000	10.272347553	22.580740903
	217	1	-4.078000000	7.775092760	21.138950177
	218	1	-2.039000000	9.744615520	20.611218144
	219	1	-2.039000000	8.302824793	23.108472936
	220	2	0.000000000	10.272347553	22.580740903
	221	1	0.000000000	7.775092760	21.138950177
	222	1	2.039000000	9.744615520	20.611218144
	223	1	2.039000000	8.302824793	23.108472936
	224	1	4.078000000	10.272347553	22.580740903
	225	1	4.078000000	7.775092760	21.138950177
	226	1	6.117000000	9.744615520	20.611218144
	227	1	6.117000000	8.302824793	23.108472936
	228	1	8.157000000	10.272347553	22.580740903
	229	1	8.157000000	7.775092760	21.138950177
	230	1	10.196000000	9.744615520	20.611218144
	231	1	10.196000000	8.302824793	23.108472936
	232	1	12.235000000	10.272347553	22.580740903
	233	1	12.235000000	7.775092760	21.138950177
	234	1	14.274000000	9.744615520	20.611218144
	235	1	14.274000000	8.302824793	23.108472936
	236	1	16.313000000	10.272347553	22.580740903
	237	1	16.313000000	7.775092760	21.138950177
	238	1	18.352000000	9.744615520	20.611218144
	239	1	-18.352000000	5.805570001	21.666682209
	240	1	-16.313000000	6.333302034	23.636204969
	241	1	-16.313000000	3.836047241	22.194414242
	242	1	-14.274000000	5.805570001	21.666682209
	243	1	-14.274000000	4.363779274	24.163937002
	244	1	-12.235000000	6.333302034	23.636204969
	245	1	-12.235000000	3.836047241	22.194414242
	246	1	-10.196000000	5.805570001	21.666682209
	247	1	-10.196000000	4.363779274	24.163937002
	248	1	-8.157000000	6.333302034	23.636204969
	249	1	-8.157000000	3.836047241	22.194414242
	250	1	-6.117000000	5.805570001	21.666682209
	251	1	-6.117000000	4.363779274	24.163937002
	252	1	-4.078000000	6.333302034	23.636204969
	253	1	-4.078000000	3.836047241	22.194414242
	254	1	-2.039000000	5.805570001	21.666682209
	255	1	-2.039000000	4.363779274	24.163937002
	256	1	0.000000000	6.333302034	23.636204969
	257	2	0.000000000	3.836047241	22.194414242
	258	1	2.039000000	5.805570001	21.666682209
	259	1	2.039000000	4.363779274	24.163937002
	260	1	4.078000000	6.333302034	23.636204969
	261	1	4.078000000	3.836047241	22.194414242
	262	1	6.117000000	5.805570001	21.666682209
	263	1	6.117000000	4.363779274	24.163937002
	264	1	8.157000000	6.333302034	23.636204969
	265	2	8.157000000	3.836047241	22.194414242
	266	1	10.196000000	5.805570001	21.666682209
	267	1	10.196000000	4.363779274	24.163937002
	268	1	12.235000000	6.333302034	23.636204969
	269	1	12.235000000	3.836047241	22.194414242
	270	1	14.274000000	5.805570001	21.666682209
	271	1	14.274000000	4.363779274	24.163937002
	272	1	16.313000000	6.333302034	23.636204969
	273	1	16.313000000	3.836047241	22.194414242
	274	1	18.352000000	5.805570001	21.666682209
	275	1	-18.352000000	1.866524481	22.722146275
	276	1	-16.313000000	2.394256514	24.691669035
	277	1	-16.313000000	-0.102998279	23.249878308
	278	1	-14.274000000	1.866524481	22.722146275
	279	1	-14.274000000	0.424733754	25.219401068
	280	1	-12.235000000	2.394256514	24.691669035
	281	1	-12.235000000	-0.102998279	23.249878308
	282	1	-10.196000000	1.866524481	22.722146275
	283	1	-10.196000000	0.424733754	25.219401068
	284	1	-8.157000000	2.394256514	24.691669035
	285	1	-8.157000000	-0.102998279	23.249878308
	286	1	-6.117000000	1.866524481	22.722146275
	287	1	-6.117000000	0.424733754	25.219401068
	288	1	-4.078000000	2.394256514	24.691669035
	289	1	-4.078000000	-0.102998279	23.249878308
	290	1	-2.039000000	1.866524481	22.722146275
	291	1	-2.039000000	0.424733754	25.219401068
	292	1	0.000000000	2.394256514	24.691669035
	293	1	0.000000000	-0.102998279	23.249878308
	294	1	2.039000000	1.866524481	22.722146275
	295	1	2.039000000	0.424733754	25.219401068
	296	1	4.078000000	2.394256514	24.691669035
	297	1	4.078000000	-0.102998279	23.249878308
	298	1	6.117000000	1.866524481	22.722146275
	299	1	6.117000000	0.424733754	25.219401068
	300	1	8.157000000	2.394256514	24.691669035
	301	1	8.157000000	-0.102998279	23.249878308
	302	1	10.196000000	1.866524481	22.722146275
	303	1	10.196000000	0.424733754	25.219401068
	304	1	12.235000000	2.394256514	24.691669035
	305	1	12.235000000	-0.102998279	23.249878308
	306	1	14.274000000	1.866524481	22.722146275
	307	1	14.274000000	0.424733754	25.219401068
	308	1	16.313000000	2.394256514	24.691669035
	309	1	16.313000000	-0.102998279	23.249878308
	310	1	18.352000000	1.866524481	22.722146275
	311	1	-16.313000000	-4.043009724	24.305601193
	312	1	-14.274000000	-2.073486964	23.777869160
	313	1	-12.235000000	-1.545754931	25.747391920
	314	1	-12.235000000	-4.043009724	24.305601193
	315	1	-10.196000000	-2.073486964	23.777869160
	316	1	-10.196000000	-3.515277691	26.275123953
	317	1	-8.157000000	-1.545754931	25.747391920
	318	1	-8.157000000	-4.043009724	24.305601193
	319	1	-6.117000000	-2.073486964	23.777869160
	320	1	-6.117000000	-3.515277691	26.275123953
	321	1	-4.078000000	-1.545754931	25.747391920
	322	1	-4.078000000	-4.043009724	24.305601193
	323	1	-2.039000000	-2.073486964	23.777869160
	324	1	-2.039000000	-3.515277691	26.275123953
	325	1	0.000000000	-1.545754931	25.747391920
	326	1	0.000000000	-4.043009724	24.305601193
	327	1	2.039000000	-2.073486964	23.777869160
	328	1	2.039000000	-3.515277691	26.275123953
	329	1	4.078000000	-1.545754931	25.747391920
	330	1	4.078000000	-4.043009724	24.305601193
	331	1	6.117000000	-2.073486964	23.777869160
	332	1	6.117000000	-3.515277691	26.275123953
	333	1	8.157000000	-1.545754931	25.747391920
	334	1	8.157000000	-4.043009724	24.305601193
	335	1	10.196000000	-2.073486964	23.777869160
	336	1	10.196000000	-3.515277691	26.275123953
	337	1	12.235000000	-1.545754931	25.747391920
	338	1	12.235000000	-4.043009724	24.305601193
	339	1	14.274000000	-2.073486964	23.777869160
	340	1	16.313000000	-4.043009724	24.305601193
	341	1	-14.274000000	-6.012532484	24.833333226
	342	1	-12.235000000	-5.484800451	26.802855986
	343	1	-12.235000000	-7.982055244	25.361065259
	344	1	-10.196000000	-6.012532484	24.833333226
	345	1	-8.157000000	-5.484800451	26.802855986
	346	1	-8.157000000	-7.982055244	25.361065259
	347	1	-6.117000000	-6.012532484	24.833333226
	348	1	-6.117000000	-7.454323211	27.330588019
	349	1	-4.078000000	-5.484800451	26.802855986
	350	1	-4.078000000	-7.982055244	25.361065259
	351	1	-2.039000000	-6.012532484	24.833333226
	352	1	-2.039000000	-7.454323211	27.330588019
	353	1	0.000000000	-5.484800451	26.802855986
	354	1	0.000000000	-7.982055244	25.361065259
	355	1	2.039000000	-6.012532484	24.833333226
	356	1	2.039000000	-7.454323211	27.330588019
	357	1	4.078000000	-5.484800451	26.802855986
	358	1	4.078000000	-7.982055244	25.361065259
	359	1	6.117000000	-6.012532484	24.833333226
	360	1	6.117000000	-7.454323211	27.330588019
	361	1	8.157000000	-5.484800451	26.802855986
	362	1	8.157000000	-7.982055244	25.361065259
	363	1	10.196000000	-6.012532484	24.833333226
	364	1	12.235000000	-5.484800451	26.802855986
	365	1	12.235000000	-7.982055244	25.361065259
	366	1	14.274000000	-6.012532484	24.833333226
	367	1	-10.196000000	-9.951578004	25.888797292
	368	1	-6.117000000	-9.951578004	25.888797292
	369	1	-4.078000000	-9.423845971	27.858320052
	370	1	-4.078000000	-11.921100763	26.416529325
	371	1	-2.039000000	-9.951578004	25.888797292
	372	1	0.000000000	-9.423845971	27.858320052
	373	1	0.000000000	-11.921100763	26.416529325
	374	1	2.039000000	-9.951578004	25.888797292
	375	1	4.078000000	-9.423845971	27.858320052
	376	1	4.078000000	-11.921100763	26.416529325
	377	1	6.117000000	-9.951578004	25.888797292
	378	1	10.196000000	-9.951578004	25.888797292
	379	1	-4.078000000	26.416529325	11.921100763
	380	1	0.000000000	26.416529325	11.921100763
	381	1	4.078000000	26.416529325	11.921100763
	382	1	-12.235000000	22.476517880	12.976823648
	383	1	-10.196000000	24.446040640	12.449091615
	384	1	-10.196000000	23.004249913	14.946346408
	385	1	-8.157000000	24.973772673	14.418614375
	386	1	-8.157000000	22.476517880	12.976823648
	387	1	-6.117000000	24.446040640	12.449091615
	388	1	-6.117000000	23.004249913	14.946346408
	389	1	-4.078000000	24.973772673	14.418614375
	390	1	-4.078000000	22.476517880	12.976823648
	391	1	-2.039000000	24.446040640	12.449091615
	392	1	-2.039000000	23.004249913	14.946346408
	393	1	0.000000000	24.973772673	14.418614375
	394	1	0.000000000	22.476517880	12.976823648
	395	1	2.039000000	24.446040640	12.449091615
	396	1	2.039000000	23.004249913	14.946346408
	397	1	4.078000000	24.973772673	14.418614375
	398	1	4.078000000	22.476517880	12.976823648
	399	1	6.117000000	24.446040640	12.449091615
	400	1	6.117000000	23.004249913	14.946346408
	401	1	8.157000000	24.973772673	14.418614375
	402	1	8.157000000	22.476517880	12.976823648
	403	1	10.196000000	24.446040640	12.449091615
	404	1	10.196000000	23.004249913	14.946346408
	405	1	12.235000000	22.476517880	12.976823648
	406	1	-16.313000000	18.537472360	14.032287714
	407	1	-14.274000000	20.506995120	13.504555681
	408	1	-14.274000000	19.065204393	16.001810474
	409	1	-12.235000000	21.034727153	15.474078441
	410	1	-12.235000000	18.537472360	14.032287714
	411	1	-10.196000000	20.506995120	13.504555681
	412	1	-10.196000000	19.065204393	16.001810474
	413	1	-8.157000000	21.034727153	15.474078441
	414	1	-8.157000000	18.537472360	14.032287714
	415	1	-6.117000000	20.506995120	13.504555681
	416	1	-6.117000000	19.065204393	16.001810474
	417	1	-4.078000000	21.034727153	15.474078441
	418	1	-4.078000000	18.537472360	14.032287714
	419	1	-2.039000000	20.506995120	13.504555681
	420	1	-2.039000000	19.065204393	16.001810474
	421	1	0.000000000	21.034727153	15.474078441
	422	1	0.000000000	18.537472360	14.032287714
	423	1	2.039000000	20.506995120	13.504555681
	424	1	2.039000000	19.065204393	16.001810474
	425	1	4.078000000	21.034727153	15.474078441
	426	1	4.078000000	18.537472360	14.032287714
	427	1	6.117000000	20.506995120	13.504555681
	428	1	6.117000000	19.065204393	16.001810474
	429	1	8.157000000	21.034727153	15.474078441
	430	1	8.157000000	18.537472360	14.032287714
	431	1	10.196000000	20.506995120	13.504555681
	432	1	10.196000000	19.065204393	16.001810474
	433	1	12.235000000	21.034727153	15.474078441
	434	1	12.235000000	18.537472360	14.032287714
	435	1	14.274000000	20.506995120	13.504555681
	436	1	14.274000000	19.065204393	16.001810474
	437	1	16.313000000	18.537472360	14.032287714
	438	1	-20.391000000	14.598426841	15.087751780
	439	1	-18.352000000	16.567949600	14.560019747
	440	1	-18.352000000	15.126158874	17.057274540
	441	1	-16.313000000	17.095681633	16.529542507
	442	1	-16.313000000	14.598426841	15.087751780
	443	1	-14.274000000	16.567949600	14.560019747
	444	1	-14.274000000	15.126158874	17.057274540
	445	1	-12.235000000	17.095681633	16.529542507
	446	1	-12.235000000	14.598426841	15.087751780
	447	1	-10.196000000	16.567949600	14.560019747
	448	1	-10.196000000	15.126158874	17.057274540
	449	1	-8.157000000	17.095681633	16.529542507
	450	1	-8.157000000	14.598426841	15.087751780
	451	1	-6.117000000	16.567949600	14.560019747
	452	1	-6.117000000	15.126158874	17.057274540
	453	1	-4.078000000	17.095681633	16.529542507
	454	1	-4.078000000	14.598426841	15.087751780
	455	2	-2.039000000	16.567949600	14.560019747
	456	1	-2.039000000	15.126158874	17.057274540
	457	1	0.000000000	17.095681633	16.529542507
	458	1	0.000000000	14.598426841	15.087751780
	459	1	2.039000000	16.567949600	14.560019747
	460	1	2.039000000	15.126158874	17.057274540
	461	1	4.078000000	17.095681633	16.529542507
	462	1	4.078000000	14.598426841	15.087751780
	463	1	6.117000000	16.567949600	14.560019747
	464	1	6.117000000	15.126158874	17.057274540
	465	1	8.157000000	17.095681633	16.529542507
	466	1	8.157000000	14.598426841	15.087751780
	467	1	10.196000000	16.567949600	14.560019747
	468	1	10.196000000	15.126158874	17.057274540
	469	1	12.235000000	17.095681633	16.529542507
	470	1	12.235000000	14.598426841	15.087751780
	471	1	14.274000000	16.567949600	14.560019747
	472	1	14.274000000	15.126158874	17.057274540
	473	1	16.313000000	17.095681633	16.529542507
	474	1	16.313000000	14.598426841	15.087751780
	475	1	18.352000000	16.567949600	14.560019747
	476	1	18.352000000	15.126158874	17.057274540
	477	1	20.391000000	14.598426841	15.087751780
	478	1	-20.391000000	13.156636114	17.585006573
	479	1	-20.391000000	10.658415395	16.143474665
	480	1	-18.352000000	12.628904081	15.615483813
	481	1	-18.352000000	11.186147428	18.112997425
	482	1	-16.313000000	13.156636114	17.585006573
	483	1	-16.313000000	10.658415395	16.143474665
	484	1	-14.274000000	12.628904081	15.615483813
	485	1	-14.274000000	11.186147428	18.112997425
	486	1	-12.235000000	13.156636114	17.585006573
	487	1	-12.235000000	10.658415395	16.143474665
	488	1	-10.196000000	12.628904081	15.615483813
	489	1	-10.196000000	11.186147428	18.112997425
	490	1	-8.157000000	13.156636114	17.585006573
	491	2	-8.157000000	10.658415395	16.143474665
	492	1	-6.117000000	12.628904081	15.615483813
	493	1	-6.117000000	11.186147428	18.112997425
	494	2	-4.078000000	13.156636114	17.585006573
	495	1	-4.078000000	10.658415395	16.143474665
	496	1	-2.039000000	12.628904081	15.615483813
	497	1	-2.039000000	11.186147428	18.112997425
	498	1	0.000000000	13.156636114	17.585006573
	499	1	0.000000000	10.658415395	16.143474665
	500	1	2.039000000	12.628904081	15.615483813
	501	1	2.039000000	11.186147428	18.112997425
	502	1	4.078000000	13.156636114	17.585006573
	503	1	4.078000000	10.658415395	16.143474665
	504	1	6.117000000	12.628904081	15.615483813
	505	1	6.117000000	11.186147428	18.112997425
	506	1	8.157000000	13.156636114	17.585006573
	507	2	8.157000000	10.658415395	16.143474665
	508	1	10.196000000	12.628904081	15.615483813
	509	1	10.196000000	11.186147428	18.112997425
	510	1	12.235000000	13.156636114	17.585006573
	511	1	12.235000000	10.658415395	16.143474665
	512	1	14.274000000	12.628904081	15.615483813
	513	1	14.274000000	11.186147428	18.112997425
	514	1	16.313000000	13.156636114	17.585006573
	515	1	16.313000000	10.658415395	16.143474665
	516	1	18.352000000	12.628904081	15.615483813
	517	1	18.352000000	11.186147428	18.112997425
	518	1	20.391000000	13.156636114	17.585006573
	519	1	20.391000000	10.658415395	16.143474665
	520	1	-22.431000000	8.688892635	16.671206698
	521	1	-20.391000000	9.216624668	18.640729458
	522	1	-20.391000000	6.719369876	17.198938731
	523	1	-18.352000000	8.688892635	16.671206698
	524	1	-18.352000000	7.247101908	19.168461491
	525	1	-16.313000000	9.216624668	18.640729458
	526	1	-16.313000000	6.719369876	17.198938731
	527	1	-14.274000000	8.688892635	16.671206698
	528	1	-14.274000000	7.247101908	19.168461491
	529	1	-12.235000000	9.216624668	18.640729458
	530	1	-12.235000000	6.719369876	17.198938731
	531	1	-10.196000000	8.688892635	16.671206698
	532	1	-10.196000000	7.247101908	19.168461491
	533	2	-8.157000000	9.216624668	18.640729458
	534	1	-8.157000000	6.719369876	17.198938731
	535	1	-6.117000000	8.688892635	16.671206698
	536	1	-6.117000000	7.247101908	19.168461491
	537	1	-4.078000000	9.216624668	18.640729458
	538	1	-4.078000000	6.719369876	17.198938731
	539	2	-2.039000000	8.688892635	16.671206698
	540	2	-2.039000000	7.247101908	19.168461491
	541	1	0.000000000	9.216624668	18.640729458
	542	1	0.000000000	6.719369876	17.198938731
	543	1	2.039000000	8.688892635	16.671206698
	544	1	2.039000000	7.247101908	19.168461491
	545	2	4.078000000	9.216624668	18.640729458
	546	1	4.078000000	6.719369876	17.198938731
	547	1	6.117000000	8.688892635	16.671206698
	548	2	6.117000000	7.247101908	19.168461491
	549	1	8.157000000	9.216624668	18.640729458
	550	1	8.157000000	6.719369876	17.198938731
	551	1	10.196000000	8.688892635	16.671206698
	552	1	10.196000000	7.247101908	19.168461491
	553	1	12.235000000	9.216624668	18.640729458
	554	1	12.235000000	6.719369876	17.198938731
	555	1	14.274000000	8.688892635	16.671206698
	556	1	14.274000000	7.247101908	19.168461491
	557	1	16.313000000	9.216624668	18.640729458
	558	1	16.313000000	6.719369876	17.198938731
	559	1	18.352000000	8.688892635	16.671206698
	560	1	18.352000000	7.247101908	19.168461491
	561	1	20.391000000	9.216624668	18.640729458
	562	1	20.391000000	6.719369876	17.198938731
	563	1	22.431000000	8.688892635	16.671206698
	564	1	-22.431000000	4.749847116	17.726670764
	565	1	-20.391000000	5.277579149	19.696193524
	566	1	-20.391000000	2.780324356	18.254402797
	567	1	-18.352000000	4.749847116	17.726670764
	568	1	-18.352000000	3.308056389	20.223925557
	569	1	-16.313000000	5.277579149	19.696193524
	570	1	-16.313000000	2.780324356	18.254402797
	571	1	-14.274000000	4.749847116	17.726670764
	572	1	-14.274000000	3.308056389	20.223925557
	573	1	-12.235000000	5.277579149	19.696193524
	574	1	-12.235000000	2.780324356	18.254402797
	575	1	-10.196000000	4.749847116	17.726670764
	576	1	-10.196000000	3.308056389	20.223925557
	577	1	-8.157000000	5.277579149	19.696193524
	578	2	-8.157000000	2.780324356	18.254402797
	579	1	-6.117000000	4.749847116	17.726670764
	580	1	-6.117000000	3.308056389	20.223925557
	581	1	-4.078000000	5.277579149	19.696193524
	582	1	-4.078000000	2.780324356	18.254402797
	583	1	-2.039000000	4.749847116	17.726670764
	584	1	-2.039000000	3.308056389	20.223925557
	585	1	0.000000000	5.277579149	19.696193524
	586	2	0.000000000	2.780324356	18.254402797
	587	1	2.039000000	4.749847116	17.726670764
	588	1	2.039000000	3.308056389	20.223925557
	589	1	4.078000000	5.277579149	19.696193524
	590	2	4.078000000	2.780324356	18.254402797
	591	1	6.117000000	4.749847116	17.726670764
	592	1	6.117000000	3.308056389	20.223925557
	593	1	8.157000000	5.277579149	19.696193524
	594	1	8.157000000	2.780324356	18.254402797
	595	2	10.196000000	4.749847116	17.726670764
	596	1	10.196000000	3.308056389	20.223925557
	597	1	12.235000000	5.277579149	19.696193524
	598	1	12.235000000	2.780324356	18.254402797
	599	1	14.274000000	4.749847116	17.726670764
	600	1	14.274000000	3.308056389	20.223925557
	601	1	16.313000000	5.277579149	19.696193524
	602	1	16.313000000	2.780324356	18.254402797
	603	1	18.352000000	4.749847116	17.726670764
	604	1	18.352000000	3.308056389	20.223925557
	605	1	20.391000000	5.277579149	19.696193524
	606	1	20.391000000	2.780324356	18.254402797
	607	1	22.431000000	4.749847116	17.726670764
	608	1	-22.431000000	0.810801596	18.782134830
	609	1	-20.391000000	1.338533629	20.751657590
	610	1	-20.391000000	-1.158721164	19.309866863
	611	1	-18.352000000	0.810801596	18.782134830
	612	1	-18.352000000	-0.630989131	21.279389623
	613	1	-16.313000000	1.338533629	20.751657590
	614	1	-16.313000000	-1.158721164	19.309866863
	615	1	-14.274000000	0.810801596	18.782134830
	616	1	-14.274000000	-0.630989131	21.279389623
	617	1	-12.235000000	1.338533629	20.751657590
	618	1	-12.235000000	-1.158721164	19.309866863
	619	1	-10.196000000	0.810801596	18.782134830
	620	1	-10.196000000	-0.630989131	21.279389623
	621	2	-8.157000000	1.338533629	20.751657590
	622	1	-8.157000000	-1.158721164	19.309866863
	623	1	-6.117000000	0.810801596	18.782134830
	624	1	-6.117000000	-0.630989131	21.279389623
	625	2	-4.078000000	1.338533629	20.751657590
	626	1	-4.078000000	-1.158721164	19.309866863
	627	2	-2.039000000	0.810801596	18.782134830
	628	1	-2.039000000	-0.630989131	21.279389623
	629	1	0.000000000	1.338533629	20.751657590
	630	2	0.000000000	-1.158721164	19.309866863
	631	1	2.039000000	0.810801596	18.782134830
	632	1	2.039000000	-0.630989131	21.279389623
	633	1	4.078000000	1.338533629	20.751657590
	634	1	4.078000000	-1.158721164	19.309866863
	635	1	6.117000000	0.810801596	18.782134830
	636	1	6.117000000	-0.630989131	21.279389623
	637	1	8.157000000	1.338533629	20.751657590
	638	1	8.157000000	-1.158721164	19.309866863
	639	1	10.196000000	0.810801596	18.782134830
	640	1	10.196000000	-0.630989131	21.279389623
	641	1	12.235000000	1.338533629	20.751657590
	642	1	12.235000000	-1.158721164	19.309866863
	643	1	14.274000000	0.810801596	18.782134830
	644	1	14.274000000	-0.630989131	21.279389623
	645	1	16.313000000	1.338533629	20.751657590
	646	1	16.313000000	-1.158721164	19.309866863
	647	1	18.352000000	0.810801596	18.782134830
	648	1	18.352000000	-0.630989131	21.279389623
	649	1	20.391000000	1.338533629	20.751657590
	650	1	20.391000000	-1.158721164	19.309866863
	651	1	22.431000000	0.810801596	18.782134830
	652	1	-20.391000000	-2.601477816	21.807380475
	653	1	-20.391000000	-5.098732609	20.365589748
	654	1	-18.352000000	-3.129209849	19.837857715
	655	1	-18.352000000	-4.571000576	22.335112508
	656	1	-16.313000000	-2.601477816	21.807380475
	657	1	-16.313000000	-5.098732609	20.365589748