
        6699 atoms 
           2 atom types 
  -60.0000000       60.000000     xlo xhi 
  -60.0000000       60.000000     ylo yhi 
  -60.0000000       60.000000     zlo zhi 
 Atoms 

	1	1	0.000000000	0.000000000	0.000000000
	2	1	0.000000000	2.208951549	1.853530430
	3	1	2.039000000	0.177710559	2.031240989
	4	1	2.039000000	2.031240989	-0.177710559
	5	1	-8.157000000	-12.467612726	-25.519485299
	6	1	-6.117000000	-14.498853716	-25.341774739
	7	1	-4.078000000	-12.467612726	-25.519485299
	8	1	-2.039000000	-14.498853716	-25.341774739
	9	1	0.000000000	-12.467612726	-25.519485299
	10	1	2.039000000	-14.498853716	-25.341774739
	11	1	4.078000000	-12.467612726	-25.519485299
	12	1	6.117000000	-14.498853716	-25.341774739
	13	1	8.157000000	-12.467612726	-25.519485299
	14	1	-12.235000000	-8.404134553	-25.874993573
	15	1	-10.196000000	-10.436371737	-25.697195858
	16	1	-8.157000000	-8.404134553	-25.874993573
	17	1	-6.117000000	-10.436371737	-25.697195858
	18	1	-6.117000000	-8.581845112	-27.906234563
	19	1	-4.078000000	-10.614082296	-27.728436848
	20	1	-4.078000000	-8.404134553	-25.874993573
	21	1	-2.039000000	-10.436371737	-25.697195858
	22	1	-2.039000000	-8.581845112	-27.906234563
	23	1	0.000000000	-10.614082296	-27.728436848
	24	1	0.000000000	-8.404134553	-25.874993573
	25	1	2.039000000	-10.436371737	-25.697195858
	26	1	2.039000000	-8.581845112	-27.906234563
	27	1	4.078000000	-10.614082296	-27.728436848
	28	1	4.078000000	-8.404134553	-25.874993573
	29	1	6.117000000	-10.436371737	-25.697195858
	30	1	6.117000000	-8.581845112	-27.906234563
	31	1	8.157000000	-8.404134553	-25.874993573
	32	1	10.196000000	-10.436371737	-25.697195858
	33	1	12.235000000	-8.404134553	-25.874993573
	34	1	-12.235000000	-4.341652574	-26.230414692
	35	1	-10.196000000	-6.372893563	-26.052704133
	36	1	-8.157000000	-6.550604123	-28.083945122
	37	1	-8.157000000	-4.341652574	-26.230414692
	38	1	-6.117000000	-6.372893563	-26.052704133
	39	1	-6.117000000	-4.519363133	-28.261655682
	40	1	-4.078000000	-6.550604123	-28.083945122
	41	1	-4.078000000	-4.341652574	-26.230414692
	42	1	-2.039000000	-6.372893563	-26.052704133
	43	1	-2.039000000	-4.519363133	-28.261655682
	44	1	0.000000000	-6.550604123	-28.083945122
	45	1	0.000000000	-4.341652574	-26.230414692
	46	1	2.039000000	-6.372893563	-26.052704133
	47	1	2.039000000	-4.519363133	-28.261655682
	48	1	4.078000000	-6.550604123	-28.083945122
	49	1	4.078000000	-4.341652574	-26.230414692
	50	1	6.117000000	-6.372893563	-26.052704133
	51	1	6.117000000	-4.519363133	-28.261655682
	52	1	8.157000000	-6.550604123	-28.083945122
	53	1	8.157000000	-4.341652574	-26.230414692
	54	1	10.196000000	-6.372893563	-26.052704133
	55	1	12.235000000	-4.341652574	-26.230414692
	56	1	-12.235000000	-0.279170595	-26.585835811
	57	1	-10.196000000	-2.310411584	-26.408125252
	58	1	-8.157000000	-2.488122144	-28.439366241
	59	1	-8.157000000	-0.279170595	-26.585835811
	60	1	-6.117000000	-2.310411584	-26.408125252
	61	1	-6.117000000	-0.456881155	-28.617076801
	62	1	-4.078000000	-2.488122144	-28.439366241
	63	1	-4.078000000	-0.279170595	-26.585835811
	64	1	-2.039000000	-2.310411584	-26.408125252
	65	1	-2.039000000	-0.456881155	-28.617076801
	66	1	0.000000000	-2.488122144	-28.439366241
	67	1	0.000000000	-0.279170595	-26.585835811
	68	1	2.039000000	-2.310411584	-26.408125252
	69	1	2.039000000	-0.456881155	-28.617076801
	70	1	4.078000000	-2.488122144	-28.439366241
	71	1	4.078000000	-0.279170595	-26.585835811
	72	1	6.117000000	-2.310411584	-26.408125252
	73	1	6.117000000	-0.456881155	-28.617076801
	74	1	8.157000000	-2.488122144	-28.439366241
	75	1	8.157000000	-0.279170595	-26.585835811
	76	1	10.196000000	-2.310411584	-26.408125252
	77	1	12.235000000	-0.279170595	-26.585835811
	78	1	-12.235000000	3.783311384	-26.941256930
	79	1	-10.196000000	1.752070394	-26.763546371
	80	1	-8.157000000	1.574359835	-28.794787360
	81	1	-8.157000000	3.783311384	-26.941256930
	82	1	-6.117000000	1.752070394	-26.763546371
	83	1	-6.117000000	3.605600824	-28.972497920
	84	1	-4.078000000	1.574359835	-28.794787360
	85	1	-4.078000000	3.783311384	-26.941256930
	86	1	-2.039000000	1.752070394	-26.763546371
	87	1	-2.039000000	3.605600824	-28.972497920
	88	1	0.000000000	1.574359835	-28.794787360
	89	1	0.000000000	3.783311384	-26.941256930
	90	1	2.039000000	1.752070394	-26.763546371
	91	1	2.039000000	3.605600824	-28.972497920
	92	1	4.078000000	1.574359835	-28.794787360
	93	1	4.078000000	3.783311384	-26.941256930
	94	1	6.117000000	1.752070394	-26.763546371
	95	1	6.117000000	3.605600824	-28.972497920
	96	1	8.157000000	1.574359835	-28.794787360
	97	1	8.157000000	3.783311384	-26.941256930
	98	1	10.196000000	1.752070394	-26.763546371
	99	1	12.235000000	3.783311384	-26.941256930
	100	1	-10.196000000	5.815548568	-27.119054645
	101	1	-8.157000000	7.846789557	-27.296765205
	102	1	-6.117000000	5.815548568	-27.119054645
	103	1	-4.078000000	5.637838008	-29.150295635
	104	1	-4.078000000	7.846789557	-27.296765205
	105	1	-2.039000000	5.815548568	-27.119054645
	106	1	0.000000000	5.637838008	-29.150295635
	107	1	0.000000000	7.846789557	-27.296765205
	108	1	2.039000000	5.815548568	-27.119054645
	109	1	4.078000000	5.637838008	-29.150295635
	110	1	4.078000000	7.846789557	-27.296765205
	111	1	6.117000000	5.815548568	-27.119054645
	112	1	8.157000000	7.846789557	-27.296765205
	113	1	10.196000000	5.815548568	-27.119054645
	114	1	-6.117000000	9.878030547	-27.474475764
	115	1	-2.039000000	9.878030547	-27.474475764
	116	1	2.039000000	9.878030547	-27.474475764
	117	1	6.117000000	9.878030547	-27.474475764
	118	1	-4.078000000	-20.237155565	-20.746161082
	119	1	0.000000000	-20.237155565	-20.746161082
	120	1	4.078000000	-20.237155565	-20.746161082
	121	1	-12.235000000	-16.174673586	-21.101582201
	122	1	-10.196000000	-18.205914576	-20.923871641
	123	1	-8.157000000	-16.174673586	-21.101582201
	124	1	-6.117000000	-18.205914576	-20.923871641
	125	1	-6.117000000	-16.352384146	-23.132823190
	126	1	-4.078000000	-18.383625135	-22.955112631
	127	1	-4.078000000	-16.174673586	-21.101582201
	128	1	-2.039000000	-18.205914576	-20.923871641
	129	1	-2.039000000	-16.352384146	-23.132823190
	130	1	0.000000000	-18.383625135	-22.955112631
	131	1	0.000000000	-16.174673586	-21.101582201
	132	1	2.039000000	-18.205914576	-20.923871641
	133	1	2.039000000	-16.352384146	-23.132823190
	134	1	4.078000000	-18.383625135	-22.955112631
	135	1	4.078000000	-16.174673586	-21.101582201
	136	1	6.117000000	-18.205914576	-20.923871641
	137	1	6.117000000	-16.352384146	-23.132823190
	138	1	8.157000000	-16.174673586	-21.101582201
	139	1	10.196000000	-18.205914576	-20.923871641
	140	1	12.235000000	-16.174673586	-21.101582201
	141	1	-16.313000000	-12.112191607	-21.457003320
	142	1	-14.274000000	-14.143432597	-21.279292760
	143	1	-12.235000000	-14.321143156	-23.310533750
	144	1	-12.235000000	-12.112191607	-21.457003320
	145	1	-10.196000000	-14.143432597	-21.279292760
	146	1	-10.196000000	-12.289902167	-23.488244309
	147	1	-8.157000000	-14.321143156	-23.310533750
	148	1	-8.157000000	-12.112191607	-21.457003320
	149	1	-6.117000000	-14.143432597	-21.279292760
	150	1	-6.117000000	-12.289902167	-23.488244309
	151	1	-4.078000000	-14.321143156	-23.310533750
	152	1	-4.078000000	-12.112191607	-21.457003320
	153	1	-2.039000000	-14.143432597	-21.279292760
	154	1	-2.039000000	-12.289902167	-23.488244309
	155	1	0.000000000	-14.321143156	-23.310533750
	156	1	0.000000000	-12.112191607	-21.457003320
	157	1	2.039000000	-14.143432597	-21.279292760
	158	1	2.039000000	-12.289902167	-23.488244309
	159	1	4.078000000	-14.321143156	-23.310533750
	160	1	4.078000000	-12.112191607	-21.457003320
	161	1	6.117000000	-14.143432597	-21.279292760
	162	1	6.117000000	-12.289902167	-23.488244309
	163	1	8.157000000	-14.321143156	-23.310533750
	164	1	8.157000000	-12.112191607	-21.457003320
	165	1	10.196000000	-14.143432597	-21.279292760
	166	1	10.196000000	-12.289902167	-23.488244309
	167	1	12.235000000	-14.321143156	-23.310533750
	168	1	12.235000000	-12.112191607	-21.457003320
	169	1	14.274000000	-14.143432597	-21.279292760
	170	1	16.313000000	-12.112191607	-21.457003320
	171	1	-16.313000000	-8.048713434	-21.812511595
	172	1	-14.274000000	-10.080950618	-21.634713879
	173	1	-14.274000000	-8.226423993	-23.843752584
	174	1	-12.235000000	-10.258661177	-23.665954869
	175	1	-12.235000000	-8.048713434	-21.812511595
	176	1	-10.196000000	-10.080950618	-21.634713879
	177	1	-10.196000000	-8.226423993	-23.843752584
	178	1	-8.157000000	-10.258661177	-23.665954869
	179	1	-8.157000000	-8.048713434	-21.812511595
	180	1	-6.117000000	-10.080950618	-21.634713879
	181	1	-6.117000000	-8.226423993	-23.843752584
	182	1	-4.078000000	-10.258661177	-23.665954869
	183	1	-4.078000000	-8.048713434	-21.812511595
	184	1	-2.039000000	-10.080950618	-21.634713879
	185	1	-2.039000000	-8.226423993	-23.843752584
	186	1	0.000000000	-10.258661177	-23.665954869
	187	1	0.000000000	-8.048713434	-21.812511595
	188	1	2.039000000	-10.080950618	-21.634713879
	189	1	2.039000000	-8.226423993	-23.843752584
	190	1	4.078000000	-10.258661177	-23.665954869
	191	1	4.078000000	-8.048713434	-21.812511595
	192	1	6.117000000	-10.080950618	-21.634713879
	193	1	6.117000000	-8.226423993	-23.843752584
	194	1	8.157000000	-10.258661177	-23.665954869
	195	1	8.157000000	-8.048713434	-21.812511595
	196	1	10.196000000	-10.080950618	-21.634713879
	197	1	10.196000000	-8.226423993	-23.843752584
	198	1	12.235000000	-10.258661177	-23.665954869
	199	1	12.235000000	-8.048713434	-21.812511595
	200	1	14.274000000	-10.080950618	-21.634713879
	201	1	14.274000000	-8.226423993	-23.843752584
	202	1	16.313000000	-8.048713434	-21.812511595
	203	1	-18.352000000	-6.017472444	-21.990222154
	204	1	-16.313000000	-6.195183004	-24.021463143
	205	1	-16.313000000	-3.986231455	-22.167932713
	206	1	-14.274000000	-6.017472444	-21.990222154
	207	1	-14.274000000	-4.163942014	-24.199173703
	208	1	-12.235000000	-6.195183004	-24.021463143
	209	1	-12.235000000	-3.986231455	-22.167932713
	210	1	-10.196000000	-6.017472444	-21.990222154
	211	1	-10.196000000	-4.163942014	-24.199173703
	212	1	-8.157000000	-6.195183004	-24.021463143
	213	1	-8.157000000	-3.986231455	-22.167932713
	214	1	-6.117000000	-6.017472444	-21.990222154
	215	1	-6.117000000	-4.163942014	-24.199173703
	216	1	-4.078000000	-6.195183004	-24.021463143
	217	1	-4.078000000	-3.986231455	-22.167932713
	218	1	-2.039000000	-6.017472444	-21.990222154
	219	1	-2.039000000	-4.163942014	-24.199173703
	220	2	0.000000000	-6.195183004	-24.021463143
	221	1	0.000000000	-3.986231455	-22.167932713
	222	1	2.039000000	-6.017472444	-21.990222154
	223	1	2.039000000	-4.163942014	-24.199173703
	224	1	4.078000000	-6.195183004	-24.021463143
	225	1	4.078000000	-3.986231455	-22.167932713
	226	1	6.117000000	-6.017472444	-21.990222154
	227	1	6.117000000	-4.163942014	-24.199173703
	228	1	8.157000000	-6.195183004	-24.021463143
	229	1	8.157000000	-3.986231455	-22.167932713
	230	1	10.196000000	-6.017472444	-21.990222154
	231	1	10.196000000	-4.163942014	-24.199173703
	232	1	12.235000000	-6.195183004	-24.021463143
	233	1	12.235000000	-3.986231455	-22.167932713
	234	1	14.274000000	-6.017472444	-21.990222154
	235	1	14.274000000	-4.163942014	-24.199173703
	236	1	16.313000000	-6.195183004	-24.021463143
	237	1	16.313000000	-3.986231455	-22.167932713
	238	1	18.352000000	-6.017472444	-21.990222154
	239	1	-18.352000000	-1.954990466	-22.345643273
	240	1	-16.313000000	-2.132701025	-24.376884262
	241	1	-16.313000000	0.076250524	-22.523353832
	242	1	-14.274000000	-1.954990466	-22.345643273
	243	1	-14.274000000	-0.101460036	-24.554594822
	244	1	-12.235000000	-2.132701025	-24.376884262
	245	1	-12.235000000	0.076250524	-22.523353832
	246	1	-10.196000000	-1.954990466	-22.345643273
	247	1	-10.196000000	-0.101460036	-24.554594822
	248	1	-8.157000000	-2.132701025	-24.376884262
	249	1	-8.157000000	0.076250524	-22.523353832
	250	1	-6.117000000	-1.954990466	-22.345643273
	251	1	-6.117000000	-0.101460036	-24.554594822
	252	1	-4.078000000	-2.132701025	-24.376884262
	253	1	-4.078000000	0.076250524	-22.523353832
	254	1	-2.039000000	-1.954990466	-22.345643273
	255	1	-2.039000000	-0.101460036	-24.554594822
	256	1	0.000000000	-2.132701025	-24.376884262
	257	2	0.000000000	0.076250524	-22.523353832
	258	1	2.039000000	-1.954990466	-22.345643273
	259	1	2.039000000	-0.101460036	-24.554594822
	260	1	4.078000000	-2.132701025	-24.376884262
	261	1	4.078000000	0.076250524	-22.523353832
	262	1	6.117000000	-1.954990466	-22.345643273
	263	1	6.117000000	-0.101460036	-24.554594822
	264	1	8.157000000	-2.132701025	-24.376884262
	265	2	8.157000000	0.076250524	-22.523353832
	266	1	10.196000000	-1.954990466	-22.345643273
	267	1	10.196000000	-0.101460036	-24.554594822
	268	1	12.235000000	-2.132701025	-24.376884262
	269	1	12.235000000	0.076250524	-22.523353832
	270	1	14.274000000	-1.954990466	-22.345643273
	271	1	14.274000000	-0.101460036	-24.554594822
	272	1	16.313000000	-2.132701025	-24.376884262
	273	1	16.313000000	0.076250524	-22.523353832
	274	1	18.352000000	-1.954990466	-22.345643273
	275	1	-18.352000000	2.107491513	-22.701064392
	276	1	-16.313000000	1.929780954	-24.732305381
	277	1	-16.313000000	4.138732503	-22.878774951
	278	1	-14.274000000	2.107491513	-22.701064392
	279	1	-14.274000000	3.961021943	-24.910015941
	280	1	-12.235000000	1.929780954	-24.732305381
	281	1	-12.235000000	4.138732503	-22.878774951
	282	1	-10.196000000	2.107491513	-22.701064392
	283	1	-10.196000000	3.961021943	-24.910015941
	284	1	-8.157000000	1.929780954	-24.732305381
	285	1	-8.157000000	4.138732503	-22.878774951
	286	1	-6.117000000	2.107491513	-22.701064392
	287	1	-6.117000000	3.961021943	-24.910015941
	288	1	-4.078000000	1.929780954	-24.732305381
	289	1	-4.078000000	4.138732503	-22.878774951
	290	1	-2.039000000	2.107491513	-22.701064392
	291	1	-2.039000000	3.961021943	-24.910015941
	292	1	0.000000000	1.929780954	-24.732305381
	293	1	0.000000000	4.138732503	-22.878774951
	294	1	2.039000000	2.107491513	-22.701064392
	295	1	2.039000000	3.961021943	-24.910015941
	296	1	4.078000000	1.929780954	-24.732305381
	297	1	4.078000000	4.138732503	-22.878774951
	298	1	6.117000000	2.107491513	-22.701064392
	299	1	6.117000000	3.961021943	-24.910015941
	300	1	8.157000000	1.929780954	-24.732305381
	301	1	8.157000000	4.138732503	-22.878774951
	302	1	10.196000000	2.107491513	-22.701064392
	303	1	10.196000000	3.961021943	-24.910015941
	304	1	12.235000000	1.929780954	-24.732305381
	305	1	12.235000000	4.138732503	-22.878774951
	306	1	14.274000000	2.107491513	-22.701064392
	307	1	14.274000000	3.961021943	-24.910015941
	308	1	16.313000000	1.929780954	-24.732305381
	309	1	16.313000000	4.138732503	-22.878774951
	310	1	18.352000000	2.107491513	-22.701064392
	311	1	-16.313000000	8.202210676	-23.234283226
	312	1	-14.274000000	6.170969687	-23.056572666
	313	1	-12.235000000	5.993259127	-25.087813656
	314	1	-12.235000000	8.202210676	-23.234283226
	315	1	-10.196000000	6.170969687	-23.056572666
	316	1	-10.196000000	8.024500117	-25.265524215
	317	1	-8.157000000	5.993259127	-25.087813656
	318	1	-8.157000000	8.202210676	-23.234283226
	319	1	-6.117000000	6.170969687	-23.056572666
	320	1	-6.117000000	8.024500117	-25.265524215
	321	1	-4.078000000	5.993259127	-25.087813656
	322	1	-4.078000000	8.202210676	-23.234283226
	323	1	-2.039000000	6.170969687	-23.056572666
	324	1	-2.039000000	8.024500117	-25.265524215
	325	1	0.000000000	5.993259127	-25.087813656
	326	1	0.000000000	8.202210676	-23.234283226
	327	1	2.039000000	6.170969687	-23.056572666
	328	1	2.039000000	8.024500117	-25.265524215
	329	1	4.078000000	5.993259127	-25.087813656
	330	1	4.078000000	8.202210676	-23.234283226
	331	1	6.117000000	6.170969687	-23.056572666
	332	1	6.117000000	8.024500117	-25.265524215
	333	1	8.157000000	5.993259127	-25.087813656
	334	1	8.157000000	8.202210676	-23.234283226
	335	1	10.196000000	6.170969687	-23.056572666
	336	1	10.196000000	8.024500117	-25.265524215
	337	1	12.235000000	5.993259127	-25.087813656
	338	1	12.235000000	8.202210676	-23.234283226
	339	1	14.274000000	6.170969687	-23.056572666
	340	1	16.313000000	8.202210676	-23.234283226
	341	1	-14.274000000	10.233451666	-23.411993785
	342	1	-12.235000000	10.055741106	-25.443234775
	343	1	-12.235000000	12.264692655	-23.589704345
	344	1	-10.196000000	10.233451666	-23.411993785
	345	1	-8.157000000	10.055741106	-25.443234775
	346	1	-8.157000000	12.264692655	-23.589704345
	347	1	-6.117000000	10.233451666	-23.411993785
	348	1	-6.117000000	12.086982096	-25.620945334
	349	1	-4.078000000	10.055741106	-25.443234775
	350	1	-4.078000000	12.264692655	-23.589704345
	351	1	-2.039000000	10.233451666	-23.411993785
	352	1	-2.039000000	12.086982096	-25.620945334
	353	1	0.000000000	10.055741106	-25.443234775
	354	1	0.000000000	12.264692655	-23.589704345
	355	1	2.039000000	10.233451666	-23.411993785
	356	1	2.039000000	12.086982096	-25.620945334
	357	1	4.078000000	10.055741106	-25.443234775
	358	1	4.078000000	12.264692655	-23.589704345
	359	1	6.117000000	10.233451666	-23.411993785
	360	1	6.117000000	12.086982096	-25.620945334
	361	1	8.157000000	10.055741106	-25.443234775
	362	1	8.157000000	12.264692655	-23.589704345
	363	1	10.196000000	10.233451666	-23.411993785
	364	1	12.235000000	10.055741106	-25.443234775
	365	1	12.235000000	12.264692655	-23.589704345
	366	1	14.274000000	10.233451666	-23.411993785
	367	1	-10.196000000	14.295933644	-23.767414904
	368	1	-6.117000000	14.295933644	-23.767414904
	369	1	-4.078000000	14.118223085	-25.798655894
	370	1	-4.078000000	16.327174634	-23.945125464
	371	1	-2.039000000	14.295933644	-23.767414904
	372	1	0.000000000	14.118223085	-25.798655894
	373	1	0.000000000	16.327174634	-23.945125464
	374	1	2.039000000	14.295933644	-23.767414904
	375	1	4.078000000	14.118223085	-25.798655894
	376	1	4.078000000	16.327174634	-23.945125464
	377	1	6.117000000	14.295933644	-23.767414904
	378	1	10.196000000	14.295933644	-23.767414904
	379	1	-4.078000000	-23.945125464	-16.327174634
	380	1	0.000000000	-23.945125464	-16.327174634
	381	1	4.078000000	-23.945125464	-16.327174634
	382	1	-12.235000000	-19.881647290	-16.682682908
	383	1	-10.196000000	-21.912888280	-16.504972349
	384	1	-10.196000000	-20.059357850	-18.713923898
	385	1	-8.157000000	-22.090598839	-18.536213338
	386	1	-8.157000000	-19.881647290	-16.682682908
	387	1	-6.117000000	-21.912888280	-16.504972349
	388	1	-6.117000000	-20.059357850	-18.713923898
	389	1	-4.078000000	-22.090598839	-18.536213338
	390	1	-4.078000000	-19.881647290	-16.682682908
	391	1	-2.039000000	-21.912888280	-16.504972349
	392	1	-2.039000000	-20.059357850	-18.713923898
	393	1	0.000000000	-22.090598839	-18.536213338
	394	1	0.000000000	-19.881647290	-16.682682908
	395	1	2.039000000	-21.912888280	-16.504972349
	396	1	2.039000000	-20.059357850	-18.713923898
	397	1	4.078000000	-22.090598839	-18.536213338
	398	1	4.078000000	-19.881647290	-16.682682908
	399	1	6.117000000	-21.912888280	-16.504972349
	400	1	6.117000000	-20.059357850	-18.713923898
	401	1	8.157000000	-22.090598839	-18.536213338
	402	1	8.157000000	-19.881647290	-16.682682908
	403	1	10.196000000	-21.912888280	-16.504972349
	404	1	10.196000000	-20.059357850	-18.713923898
	405	1	12.235000000	-19.881647290	-16.682682908
	406	1	-16.313000000	-15.819165311	-17.038104027
	407	1	-14.274000000	-17.850406301	-16.860393468
	408	1	-14.274000000	-15.996875871	-19.069345017
	409	1	-12.235000000	-18.028116860	-18.891634457
	410	1	-12.235000000	-15.819165311	-17.038104027
	411	1	-10.196000000	-17.850406301	-16.860393468
	412	1	-10.196000000	-15.996875871	-19.069345017
	413	1	-8.157000000	-18.028116860	-18.891634457
	414	1	-8.157000000	-15.819165311	-17.038104027
	415	1	-6.117000000	-17.850406301	-16.860393468
	416	1	-6.117000000	-15.996875871	-19.069345017
	417	1	-4.078000000	-18.028116860	-18.891634457
	418	1	-4.078000000	-15.819165311	-17.038104027
	419	1	-2.039000000	-17.850406301	-16.860393468
	420	1	-2.039000000	-15.996875871	-19.069345017
	421	1	0.000000000	-18.028116860	-18.891634457
	422	1	0.000000000	-15.819165311	-17.038104027
	423	1	2.039000000	-17.850406301	-16.860393468
	424	1	2.039000000	-15.996875871	-19.069345017
	425	1	4.078000000	-18.028116860	-18.891634457
	426	1	4.078000000	-15.819165311	-17.038104027
	427	1	6.117000000	-17.850406301	-16.860393468
	428	1	6.117000000	-15.996875871	-19.069345017
	429	1	8.157000000	-18.028116860	-18.891634457
	430	1	8.157000000	-15.819165311	-17.038104027
	431	1	10.196000000	-17.850406301	-16.860393468
	432	1	10.196000000	-15.996875871	-19.069345017
	433	1	12.235000000	-18.028116860	-18.891634457
	434	1	12.235000000	-15.819165311	-17.038104027
	435	1	14.274000000	-17.850406301	-16.860393468
	436	1	14.274000000	-15.996875871	-19.069345017
	437	1	16.313000000	-15.819165311	-17.038104027
	438	1	-20.391000000	-11.756683333	-17.393525146
	439	1	-18.352000000	-13.787924322	-17.215814587
	440	1	-18.352000000	-11.934393892	-19.424766136
	441	1	-16.313000000	-13.965634882	-19.247055576
	442	1	-16.313000000	-11.756683333	-17.393525146
	443	1	-14.274000000	-13.787924322	-17.215814587
	444	1	-14.274000000	-11.934393892	-19.424766136
	445	1	-12.235000000	-13.965634882	-19.247055576
	446	1	-12.235000000	-11.756683333	-17.393525146
	447	1	-10.196000000	-13.787924322	-17.215814587
	448	1	-10.196000000	-11.934393892	-19.424766136
	449	1	-8.157000000	-13.965634882	-19.247055576
	450	1	-8.157000000	-11.756683333	-17.393525146
	451	1	-6.117000000	-13.787924322	-17.215814587
	452	1	-6.117000000	-11.934393892	-19.424766136
	453	1	-4.078000000	-13.965634882	-19.247055576
	454	1	-4.078000000	-11.756683333	-17.393525146
	455	2	-2.039000000	-13.787924322	-17.215814587
	456	1	-2.039000000	-11.934393892	-19.424766136
	457	1	0.000000000	-13.965634882	-19.247055576
	458	1	0.000000000	-11.756683333	-17.393525146
	459	1	2.039000000	-13.787924322	-17.215814587
	460	1	2.039000000	-11.934393892	-19.424766136
	461	1	4.078000000	-13.965634882	-19.247055576
	462	1	4.078000000	-11.756683333	-17.393525146
	463	1	6.117000000	-13.787924322	-17.215814587
	464	1	6.117000000	-11.934393892	-19.424766136
	465	1	8.157000000	-13.965634882	-19.247055576
	466	1	8.157000000	-11.756683333	-17.393525146
	467	1	10.196000000	-13.787924322	-17.215814587
	468	1	10.196000000	-11.934393892	-19.424766136
	469	1	12.235000000	-13.965634882	-19.247055576
	470	1	12.235000000	-11.756683333	-17.393525146
	471	1	14.274000000	-13.787924322	-17.215814587
	472	1	14.274000000	-11.934393892	-19.424766136
	473	1	16.313000000	-13.965634882	-19.247055576
	474	1	16.313000000	-11.756683333	-17.393525146
	475	1	18.352000000	-13.787924322	-17.215814587
	476	1	18.352000000	-11.934393892	-19.424766136
	477	1	20.391000000	-11.756683333	-17.393525146
	478	1	-20.391000000	-9.903152903	-19.602476695
	479	1	-20.391000000	-7.693205159	-17.749033421
	480	1	-18.352000000	-9.725442343	-17.571235706
	481	1	-18.352000000	-7.870915719	-19.780274410
	482	1	-16.313000000	-9.903152903	-19.602476695
	483	1	-16.313000000	-7.693205159	-17.749033421
	484	1	-14.274000000	-9.725442343	-17.571235706
	485	1	-14.274000000	-7.870915719	-19.780274410
	486	1	-12.235000000	-9.903152903	-19.602476695
	487	1	-12.235000000	-7.693205159	-17.749033421
	488	1	-10.196000000	-9.725442343	-17.571235706
	489	1	-10.196000000	-7.870915719	-19.780274410
	490	1	-8.157000000	-9.903152903	-19.602476695
	491	2	-8.157000000	-7.693205159	-17.749033421
	492	1	-6.117000000	-9.725442343	-17.571235706
	493	1	-6.117000000	-7.870915719	-19.780274410
	494	2	-4.078000000	-9.903152903	-19.602476695
	495	1	-4.078000000	-7.693205159	-17.749033421
	496	1	-2.039000000	-9.725442343	-17.571235706
	497	1	-2.039000000	-7.870915719	-19.780274410
	498	1	0.000000000	-9.903152903	-19.602476695
	499	1	0.000000000	-7.693205159	-17.749033421
	500	1	2.039000000	-9.725442343	-17.571235706
	501	1	2.039000000	-7.870915719	-19.780274410
	502	1	4.078000000	-9.903152903	-19.602476695
	503	1	4.078000000	-7.693205159	-17.749033421
	504	1	6.117000000	-9.725442343	-17.571235706
	505	1	6.117000000	-7.870915719	-19.780274410
	506	1	8.157000000	-9.903152903	-19.602476695
	507	2	8.157000000	-7.693205159	-17.749033421
	508	1	10.196000000	-9.725442343	-17.571235706
	509	1	10.196000000	-7.870915719	-19.780274410
	510	1	12.235000000	-9.903152903	-19.602476695
	511	1	12.235000000	-7.693205159	-17.749033421
	512	1	14.274000000	-9.725442343	-17.571235706
	513	1	14.274000000	-7.870915719	-19.780274410
	514	1	16.313000000	-9.903152903	-19.602476695
	515	1	16.313000000	-7.693205159	-17.749033421
	516	1	18.352000000	-9.725442343	-17.571235706
	517	1	18.352000000	-7.870915719	-19.780274410
	518	1	20.391000000	-9.903152903	-19.602476695
	519	1	20.391000000	-7.693205159	-17.749033421
	520	1	-22.431000000	-5.661964170	-17.926743980
	521	1	-20.391000000	-5.839674729	-19.957984970
	522	1	-20.391000000	-3.630723180	-18.104454540
	523	1	-18.352000000	-5.661964170	-17.926743980
	524	1	-18.352000000	-3.808433740	-20.135695529
	525	1	-16.313000000	-5.839674729	-19.957984970
	526	1	-16.313000000	-3.630723180	-18.104454540
	527	1	-14.274000000	-5.661964170	-17.926743980
	528	1	-14.274000000	-3.808433740	-20.135695529
	529	1	-12.235000000	-5.839674729	-19.957984970
	530	1	-12.235000000	-3.630723180	-18.104454540
	531	1	-10.196000000	-5.661964170	-17.926743980
	532	1	-10.196000000	-3.808433740	-20.135695529
	533	2	-8.157000000	-5.839674729	-19.957984970
	534	1	-8.157000000	-3.630723180	-18.104454540
	535	1	-6.117000000	-5.661964170	-17.926743980
	536	1	-6.117000000	-3.808433740	-20.135695529
	537	1	-4.078000000	-5.839674729	-19.957984970
	538	1	-4.078000000	-3.630723180	-18.104454540
	539	2	-2.039000000	-5.661964170	-17.926743980
	540	2	-2.039000000	-3.808433740	-20.135695529
	541	1	0.000000000	-5.839674729	-19.957984970
	542	1	0.000000000	-3.630723180	-18.104454540
	543	1	2.039000000	-5.661964170	-17.926743980
	544	1	2.039000000	-3.808433740	-20.135695529
	545	2	4.078000000	-5.839674729	-19.957984970
	546	1	4.078000000	-3.630723180	-18.104454540
	547	1	6.117000000	-5.661964170	-17.926743980
	548	2	6.117000000	-3.808433740	-20.135695529
	549	1	8.157000000	-5.839674729	-19.957984970
	550	1	8.157000000	-3.630723180	-18.104454540
	551	1	10.196000000	-5.661964170	-17.926743980
	552	1	10.196000000	-3.808433740	-20.135695529
	553	1	12.235000000	-5.839674729	-19.957984970
	554	1	12.235000000	-3.630723180	-18.104454540
	555	1	14.274000000	-5.661964170	-17.926743980
	556	1	14.274000000	-3.808433740	-20.135695529
	557	1	16.313000000	-5.839674729	-19.957984970
	558	1	16.313000000	-3.630723180	-18.104454540
	559	1	18.352000000	-5.661964170	-17.926743980
	560	1	18.352000000	-3.808433740	-20.135695529
	561	1	20.391000000	-5.839674729	-19.957984970
	562	1	20.391000000	-3.630723180	-18.104454540
	563	1	22.431000000	-5.661964170	-17.926743980
	564	1	-22.431000000	-1.599482191	-18.282165099
	565	1	-20.391000000	-1.777192750	-20.313406089
	566	1	-20.391000000	0.431758799	-18.459875659
	567	1	-18.352000000	-1.599482191	-18.282165099
	568	1	-18.352000000	0.254048239	-20.491116648
	569	1	-16.313000000	-1.777192750	-20.313406089
	570	1	-16.313000000	0.431758799	-18.459875659
	571	1	-14.274000000	-1.599482191	-18.282165099
	572	1	-14.274000000	0.254048239	-20.491116648
	573	1	-12.235000000	-1.777192750	-20.313406089
	574	1	-12.235000000	0.431758799	-18.459875659
	575	1	-10.196000000	-1.599482191	-18.282165099
	576	1	-10.196000000	0.254048239	-20.491116648
	577	1	-8.157000000	-1.777192750	-20.313406089
	578	2	-8.157000000	0.431758799	-18.459875659
	579	1	-6.117000000	-1.599482191	-18.282165099
	580	1	-6.117000000	0.254048239	-20.491116648
	581	1	-4.078000000	-1.777192750	-20.313406089
	582	1	-4.078000000	0.431758799	-18.459875659
	583	1	-2.039000000	-1.599482191	-18.282165099
	584	1	-2.039000000	0.254048239	-20.491116648
	585	1	0.000000000	-1.777192750	-20.313406089
	586	2	0.000000000	0.431758799	-18.459875659
	587	1	2.039000000	-1.599482191	-18.282165099
	588	1	2.039000000	0.254048239	-20.491116648
	589	1	4.078000000	-1.777192750	-20.313406089
	590	2	4.078000000	0.431758799	-18.459875659
	591	1	6.117000000	-1.599482191	-18.282165099
	592	1	6.117000000	0.254048239	-20.491116648
	593	1	8.157000000	-1.777192750	-20.313406089
	594	1	8.157000000	0.431758799	-18.459875659
	595	2	10.196000000	-1.599482191	-18.282165099
	596	1	10.196000000	0.254048239	-20.491116648
	597	1	12.235000000	-1.777192750	-20.313406089
	598	1	12.235000000	0.431758799	-18.459875659
	599	1	14.274000000	-1.599482191	-18.282165099
	600	1	14.274000000	0.254048239	-20.491116648
	601	1	16.313000000	-1.777192750	-20.313406089
	602	1	16.313000000	0.431758799	-18.459875659
	603	1	18.352000000	-1.599482191	-18.282165099
	604	1	18.352000000	0.254048239	-20.491116648
	605	1	20.391000000	-1.777192750	-20.313406089
	606	1	20.391000000	0.431758799	-18.459875659
	607	1	22.431000000	-1.599482191	-18.282165099
	608	1	-22.431000000	2.462999788	-18.637586218
	609	1	-20.391000000	2.285289228	-20.668827208
	610	1	-20.391000000	4.494240777	-18.815296778
	611	1	-18.352000000	2.462999788	-18.637586218
	612	1	-18.352000000	4.316530218	-20.846537767
	613	1	-16.313000000	2.285289228	-20.668827208
	614	1	-16.313000000	4.494240777	-18.815296778
	615	1	-14.274000000	2.462999788	-18.637586218
	616	1	-14.274000000	4.316530218	-20.846537767
	617	1	-12.235000000	2.285289228	-20.668827208
	618	1	-12.235000000	4.494240777	-18.815296778
	619	1	-10.196000000	2.462999788	-18.637586218
	620	1	-10.196000000	4.316530218	-20.846537767
	621	2	-8.157000000	2.285289228	-20.668827208
	622	1	-8.157000000	4.494240777	-18.815296778
	623	1	-6.117000000	2.462999788	-18.637586218
	624	1	-6.117000000	4.316530218	-20.846537767
	625	2	-4.078000000	2.285289228	-20.668827208
	626	1	-4.078000000	4.494240777	-18.815296778
	627	2	-2.039000000	2.462999788	-18.637586218
	628	1	-2.039000000	4.316530218	-20.846537767
	629	1	0.000000000	2.285289228	-20.668827208
	630	2	0.000000000	4.494240777	-18.815296778
	631	1	2.039000000	2.462999788	-18.637586218
	632	1	2.039000000	4.316530218	-20.846537767
	633	1	4.078000000	2.285289228	-20.668827208
	634	1	4.078000000	4.494240777	-18.815296778
	635	1	6.117000000	2.462999788	-18.637586218
	636	1	6.117000000	4.316530218	-20.846537767
	637	1	8.157000000	2.285289228	-20.668827208
	638	1	8.157000000	4.494240777	-18.815296778