
        6699 atoms 
           2 atom types 
  -60.0000000       60.000000     xlo xhi 
  -60.0000000       60.000000     ylo yhi 
  -60.0000000       60.000000     zlo zhi 
 Atoms 

	1	1	0.000000000	0.000000000	0.000000000
	2	1	0.000000000	-1.653954374	2.362091643
	3	1	2.039000000	-2.008023008	0.354068634
	4	1	2.039000000	0.354068634	2.008023008
	5	1	-8.157000000	24.335751905	-14.644339391
	6	1	-6.117000000	23.981683271	-16.652362400
	7	1	-4.078000000	24.335751905	-14.644339391
	8	1	-2.039000000	23.981683271	-16.652362400
	9	1	0.000000000	24.335751905	-14.644339391
	10	1	2.039000000	23.981683271	-16.652362400
	11	1	4.078000000	24.335751905	-14.644339391
	12	1	6.117000000	23.981683271	-16.652362400
	13	1	8.157000000	24.335751905	-14.644339391
	14	1	-12.235000000	25.044062822	-10.627308567
	15	1	-10.196000000	24.689820539	-12.636316383
	16	1	-8.157000000	25.044062822	-10.627308567
	17	1	-6.117000000	24.689820539	-12.636316383
	18	1	-6.117000000	27.052085830	-10.981377201
	19	1	-4.078000000	26.697843548	-12.990385017
	20	1	-4.078000000	25.044062822	-10.627308567
	21	1	-2.039000000	24.689820539	-12.636316383
	22	1	-2.039000000	27.052085830	-10.981377201
	23	1	0.000000000	26.697843548	-12.990385017
	24	1	0.000000000	25.044062822	-10.627308567
	25	1	2.039000000	24.689820539	-12.636316383
	26	1	2.039000000	27.052085830	-10.981377201
	27	1	4.078000000	26.697843548	-12.990385017
	28	1	4.078000000	25.044062822	-10.627308567
	29	1	6.117000000	24.689820539	-12.636316383
	30	1	6.117000000	27.052085830	-10.981377201
	31	1	8.157000000	25.044062822	-10.627308567
	32	1	10.196000000	24.689820539	-12.636316383
	33	1	12.235000000	25.044062822	-10.627308567
	34	1	-12.235000000	25.752200090	-6.611262550
	35	1	-10.196000000	25.398131456	-8.619285559
	36	1	-8.157000000	27.406154464	-8.973354193
	37	1	-8.157000000	25.752200090	-6.611262550
	38	1	-6.117000000	25.398131456	-8.619285559
	39	1	-6.117000000	27.760223099	-6.965331184
	40	1	-4.078000000	27.406154464	-8.973354193
	41	1	-4.078000000	25.752200090	-6.611262550
	42	1	-2.039000000	25.398131456	-8.619285559
	43	1	-2.039000000	27.760223099	-6.965331184
	44	1	0.000000000	27.406154464	-8.973354193
	45	1	0.000000000	25.752200090	-6.611262550
	46	1	2.039000000	25.398131456	-8.619285559
	47	1	2.039000000	27.760223099	-6.965331184
	48	1	4.078000000	27.406154464	-8.973354193
	49	1	4.078000000	25.752200090	-6.611262550
	50	1	6.117000000	25.398131456	-8.619285559
	51	1	6.117000000	27.760223099	-6.965331184
	52	1	8.157000000	27.406154464	-8.973354193
	53	1	8.157000000	25.752200090	-6.611262550
	54	1	10.196000000	25.398131456	-8.619285559
	55	1	12.235000000	25.752200090	-6.611262550
	56	1	-12.235000000	26.460337359	-2.595216533
	57	1	-10.196000000	26.106268725	-4.603239542
	58	1	-8.157000000	28.114291733	-4.957308176
	59	1	-8.157000000	26.460337359	-2.595216533
	60	1	-6.117000000	26.106268725	-4.603239542
	61	1	-6.117000000	28.468360367	-2.949285168
	62	1	-4.078000000	28.114291733	-4.957308176
	63	1	-4.078000000	26.460337359	-2.595216533
	64	1	-2.039000000	26.106268725	-4.603239542
	65	1	-2.039000000	28.468360367	-2.949285168
	66	1	0.000000000	28.114291733	-4.957308176
	67	1	0.000000000	26.460337359	-2.595216533
	68	1	2.039000000	26.106268725	-4.603239542
	69	1	2.039000000	28.468360367	-2.949285168
	70	1	4.078000000	28.114291733	-4.957308176
	71	1	4.078000000	26.460337359	-2.595216533
	72	1	6.117000000	26.106268725	-4.603239542
	73	1	6.117000000	28.468360367	-2.949285168
	74	1	8.157000000	28.114291733	-4.957308176
	75	1	8.157000000	26.460337359	-2.595216533
	76	1	10.196000000	26.106268725	-4.603239542
	77	1	12.235000000	26.460337359	-2.595216533
	78	1	-12.235000000	27.168474627	1.420829483
	79	1	-10.196000000	26.814405993	-0.587193525
	80	1	-8.157000000	28.822429002	-0.941262159
	81	1	-8.157000000	27.168474627	1.420829483
	82	1	-6.117000000	26.814405993	-0.587193525
	83	1	-6.117000000	29.176497636	1.066760849
	84	1	-4.078000000	28.822429002	-0.941262159
	85	1	-4.078000000	27.168474627	1.420829483
	86	1	-2.039000000	26.814405993	-0.587193525
	87	1	-2.039000000	29.176497636	1.066760849
	88	1	0.000000000	28.822429002	-0.941262159
	89	1	0.000000000	27.168474627	1.420829483
	90	1	2.039000000	26.814405993	-0.587193525
	91	1	2.039000000	29.176497636	1.066760849
	92	1	4.078000000	28.822429002	-0.941262159
	93	1	4.078000000	27.168474627	1.420829483
	94	1	6.117000000	26.814405993	-0.587193525
	95	1	6.117000000	29.176497636	1.066760849
	96	1	8.157000000	28.822429002	-0.941262159
	97	1	8.157000000	27.168474627	1.420829483
	98	1	10.196000000	26.814405993	-0.587193525
	99	1	12.235000000	27.168474627	1.420829483
	100	1	-10.196000000	27.522716910	3.429837300
	101	1	-8.157000000	27.876785544	5.437860308
	102	1	-6.117000000	27.522716910	3.429837300
	103	1	-4.078000000	29.530739918	3.075768665
	104	1	-4.078000000	27.876785544	5.437860308
	105	1	-2.039000000	27.522716910	3.429837300
	106	1	0.000000000	29.530739918	3.075768665
	107	1	0.000000000	27.876785544	5.437860308
	108	1	2.039000000	27.522716910	3.429837300
	109	1	4.078000000	29.530739918	3.075768665
	110	1	4.078000000	27.876785544	5.437860308
	111	1	6.117000000	27.522716910	3.429837300
	112	1	8.157000000	27.876785544	5.437860308
	113	1	10.196000000	27.522716910	3.429837300
	114	1	-6.117000000	28.230854178	7.445883316
	115	1	-2.039000000	28.230854178	7.445883316
	116	1	2.039000000	28.230854178	7.445883316
	117	1	6.117000000	28.230854178	7.445883316
	118	1	-4.078000000	18.903431351	-21.968294157
	119	1	0.000000000	18.903431351	-21.968294157
	120	1	4.078000000	18.903431351	-21.968294157
	121	1	-12.235000000	19.611568620	-17.952248140
	122	1	-10.196000000	19.257499986	-19.960271148
	123	1	-8.157000000	19.611568620	-17.952248140
	124	1	-6.117000000	19.257499986	-19.960271148
	125	1	-6.117000000	21.619591628	-18.306316774
	126	1	-4.078000000	21.265522994	-20.314339782
	127	1	-4.078000000	19.611568620	-17.952248140
	128	1	-2.039000000	19.257499986	-19.960271148
	129	1	-2.039000000	21.619591628	-18.306316774
	130	1	0.000000000	21.265522994	-20.314339782
	131	1	0.000000000	19.611568620	-17.952248140
	132	1	2.039000000	19.257499986	-19.960271148
	133	1	2.039000000	21.619591628	-18.306316774
	134	1	4.078000000	21.265522994	-20.314339782
	135	1	4.078000000	19.611568620	-17.952248140
	136	1	6.117000000	19.257499986	-19.960271148
	137	1	6.117000000	21.619591628	-18.306316774
	138	1	8.157000000	19.611568620	-17.952248140
	139	1	10.196000000	19.257499986	-19.960271148
	140	1	12.235000000	19.611568620	-17.952248140
	141	1	-16.313000000	20.319705888	-13.936202123
	142	1	-14.274000000	19.965637254	-15.944225131
	143	1	-12.235000000	21.973660262	-16.298293766
	144	1	-12.235000000	20.319705888	-13.936202123
	145	1	-10.196000000	19.965637254	-15.944225131
	146	1	-10.196000000	22.327728897	-14.290270757
	147	1	-8.157000000	21.973660262	-16.298293766
	148	1	-8.157000000	20.319705888	-13.936202123
	149	1	-6.117000000	19.965637254	-15.944225131
	150	1	-6.117000000	22.327728897	-14.290270757
	151	1	-4.078000000	21.973660262	-16.298293766
	152	1	-4.078000000	20.319705888	-13.936202123
	153	1	-2.039000000	19.965637254	-15.944225131
	154	1	-2.039000000	22.327728897	-14.290270757
	155	1	0.000000000	21.973660262	-16.298293766
	156	1	0.000000000	20.319705888	-13.936202123
	157	1	2.039000000	19.965637254	-15.944225131
	158	1	2.039000000	22.327728897	-14.290270757
	159	1	4.078000000	21.973660262	-16.298293766
	160	1	4.078000000	20.319705888	-13.936202123
	161	1	6.117000000	19.965637254	-15.944225131
	162	1	6.117000000	22.327728897	-14.290270757
	163	1	8.157000000	21.973660262	-16.298293766
	164	1	8.157000000	20.319705888	-13.936202123
	165	1	10.196000000	19.965637254	-15.944225131
	166	1	10.196000000	22.327728897	-14.290270757
	167	1	12.235000000	21.973660262	-16.298293766
	168	1	12.235000000	20.319705888	-13.936202123
	169	1	14.274000000	19.965637254	-15.944225131
	170	1	16.313000000	20.319705888	-13.936202123
	171	1	-16.313000000	21.028016805	-9.919171298
	172	1	-14.274000000	20.673774523	-11.928179115
	173	1	-14.274000000	23.036039813	-10.273239933
	174	1	-12.235000000	22.681797531	-12.282247749
	175	1	-12.235000000	21.028016805	-9.919171298
	176	1	-10.196000000	20.673774523	-11.928179115
	177	1	-10.196000000	23.036039813	-10.273239933
	178	1	-8.157000000	22.681797531	-12.282247749
	179	1	-8.157000000	21.028016805	-9.919171298
	180	1	-6.117000000	20.673774523	-11.928179115
	181	1	-6.117000000	23.036039813	-10.273239933
	182	1	-4.078000000	22.681797531	-12.282247749
	183	1	-4.078000000	21.028016805	-9.919171298
	184	1	-2.039000000	20.673774523	-11.928179115
	185	1	-2.039000000	23.036039813	-10.273239933
	186	1	0.000000000	22.681797531	-12.282247749
	187	1	0.000000000	21.028016805	-9.919171298
	188	1	2.039000000	20.673774523	-11.928179115
	189	1	2.039000000	23.036039813	-10.273239933
	190	1	4.078000000	22.681797531	-12.282247749
	191	1	4.078000000	21.028016805	-9.919171298
	192	1	6.117000000	20.673774523	-11.928179115
	193	1	6.117000000	23.036039813	-10.273239933
	194	1	8.157000000	22.681797531	-12.282247749
	195	1	8.157000000	21.028016805	-9.919171298
	196	1	10.196000000	20.673774523	-11.928179115
	197	1	10.196000000	23.036039813	-10.273239933
	198	1	12.235000000	22.681797531	-12.282247749
	199	1	12.235000000	21.028016805	-9.919171298
	200	1	14.274000000	20.673774523	-11.928179115
	201	1	14.274000000	23.036039813	-10.273239933
	202	1	16.313000000	21.028016805	-9.919171298
	203	1	-18.352000000	21.382085439	-7.911148290
	204	1	-16.313000000	23.390108448	-8.265216924
	205	1	-16.313000000	21.736154074	-5.903125282
	206	1	-14.274000000	21.382085439	-7.911148290
	207	1	-14.274000000	23.744177082	-6.257193916
	208	1	-12.235000000	23.390108448	-8.265216924
	209	1	-12.235000000	21.736154074	-5.903125282
	210	1	-10.196000000	21.382085439	-7.911148290
	211	1	-10.196000000	23.744177082	-6.257193916
	212	1	-8.157000000	23.390108448	-8.265216924
	213	1	-8.157000000	21.736154074	-5.903125282
	214	1	-6.117000000	21.382085439	-7.911148290
	215	1	-6.117000000	23.744177082	-6.257193916
	216	1	-4.078000000	23.390108448	-8.265216924
	217	1	-4.078000000	21.736154074	-5.903125282
	218	1	-2.039000000	21.382085439	-7.911148290
	219	1	-2.039000000	23.744177082	-6.257193916
	220	2	0.000000000	23.390108448	-8.265216924
	221	1	0.000000000	21.736154074	-5.903125282
	222	1	2.039000000	21.382085439	-7.911148290
	223	1	2.039000000	23.744177082	-6.257193916
	224	1	4.078000000	23.390108448	-8.265216924
	225	1	4.078000000	21.736154074	-5.903125282
	226	1	6.117000000	21.382085439	-7.911148290
	227	1	6.117000000	23.744177082	-6.257193916
	228	1	8.157000000	23.390108448	-8.265216924
	229	1	8.157000000	21.736154074	-5.903125282
	230	1	10.196000000	21.382085439	-7.911148290
	231	1	10.196000000	23.744177082	-6.257193916
	232	1	12.235000000	23.390108448	-8.265216924
	233	1	12.235000000	21.736154074	-5.903125282
	234	1	14.274000000	21.382085439	-7.911148290
	235	1	14.274000000	23.744177082	-6.257193916
	236	1	16.313000000	23.390108448	-8.265216924
	237	1	16.313000000	21.736154074	-5.903125282
	238	1	18.352000000	21.382085439	-7.911148290
	239	1	-18.352000000	22.090222708	-3.895102273
	240	1	-16.313000000	24.098245716	-4.249170908
	241	1	-16.313000000	22.444291342	-1.887079265
	242	1	-14.274000000	22.090222708	-3.895102273
	243	1	-14.274000000	24.452314350	-2.241147899
	244	1	-12.235000000	24.098245716	-4.249170908
	245	1	-12.235000000	22.444291342	-1.887079265
	246	1	-10.196000000	22.090222708	-3.895102273
	247	1	-10.196000000	24.452314350	-2.241147899
	248	1	-8.157000000	24.098245716	-4.249170908
	249	1	-8.157000000	22.444291342	-1.887079265
	250	1	-6.117000000	22.090222708	-3.895102273
	251	1	-6.117000000	24.452314350	-2.241147899
	252	1	-4.078000000	24.098245716	-4.249170908
	253	1	-4.078000000	22.444291342	-1.887079265
	254	1	-2.039000000	22.090222708	-3.895102273
	255	1	-2.039000000	24.452314350	-2.241147899
	256	1	0.000000000	24.098245716	-4.249170908
	257	2	0.000000000	22.444291342	-1.887079265
	258	1	2.039000000	22.090222708	-3.895102273
	259	1	2.039000000	24.452314350	-2.241147899
	260	1	4.078000000	24.098245716	-4.249170908
	261	1	4.078000000	22.444291342	-1.887079265
	262	1	6.117000000	22.090222708	-3.895102273
	263	1	6.117000000	24.452314350	-2.241147899
	264	1	8.157000000	24.098245716	-4.249170908
	265	2	8.157000000	22.444291342	-1.887079265
	266	1	10.196000000	22.090222708	-3.895102273
	267	1	10.196000000	24.452314350	-2.241147899
	268	1	12.235000000	24.098245716	-4.249170908
	269	1	12.235000000	22.444291342	-1.887079265
	270	1	14.274000000	22.090222708	-3.895102273
	271	1	14.274000000	24.452314350	-2.241147899
	272	1	16.313000000	24.098245716	-4.249170908
	273	1	16.313000000	22.444291342	-1.887079265
	274	1	18.352000000	22.090222708	-3.895102273
	275	1	-18.352000000	22.798359976	0.120943744
	276	1	-16.313000000	24.806382985	-0.233124891
	277	1	-16.313000000	23.152428611	2.128966752
	278	1	-14.274000000	22.798359976	0.120943744
	279	1	-14.274000000	25.160451619	1.774898118
	280	1	-12.235000000	24.806382985	-0.233124891
	281	1	-12.235000000	23.152428611	2.128966752
	282	1	-10.196000000	22.798359976	0.120943744
	283	1	-10.196000000	25.160451619	1.774898118
	284	1	-8.157000000	24.806382985	-0.233124891
	285	1	-8.157000000	23.152428611	2.128966752
	286	1	-6.117000000	22.798359976	0.120943744
	287	1	-6.117000000	25.160451619	1.774898118
	288	1	-4.078000000	24.806382985	-0.233124891
	289	1	-4.078000000	23.152428611	2.128966752
	290	1	-2.039000000	22.798359976	0.120943744
	291	1	-2.039000000	25.160451619	1.774898118
	292	1	0.000000000	24.806382985	-0.233124891
	293	1	0.000000000	23.152428611	2.128966752
	294	1	2.039000000	22.798359976	0.120943744
	295	1	2.039000000	25.160451619	1.774898118
	296	1	4.078000000	24.806382985	-0.233124891
	297	1	4.078000000	23.152428611	2.128966752
	298	1	6.117000000	22.798359976	0.120943744
	299	1	6.117000000	25.160451619	1.774898118
	300	1	8.157000000	24.806382985	-0.233124891
	301	1	8.157000000	23.152428611	2.128966752
	302	1	10.196000000	22.798359976	0.120943744
	303	1	10.196000000	25.160451619	1.774898118
	304	1	12.235000000	24.806382985	-0.233124891
	305	1	12.235000000	23.152428611	2.128966752
	306	1	14.274000000	22.798359976	0.120943744
	307	1	14.274000000	25.160451619	1.774898118
	308	1	16.313000000	24.806382985	-0.233124891
	309	1	16.313000000	23.152428611	2.128966752
	310	1	18.352000000	22.798359976	0.120943744
	311	1	-16.313000000	23.860739527	6.145997576
	312	1	-14.274000000	23.506670893	4.137974568
	313	1	-12.235000000	25.514693901	3.783905934
	314	1	-12.235000000	23.860739527	6.145997576
	315	1	-10.196000000	23.506670893	4.137974568
	316	1	-10.196000000	25.868762536	5.791928942
	317	1	-8.157000000	25.514693901	3.783905934
	318	1	-8.157000000	23.860739527	6.145997576
	319	1	-6.117000000	23.506670893	4.137974568
	320	1	-6.117000000	25.868762536	5.791928942
	321	1	-4.078000000	25.514693901	3.783905934
	322	1	-4.078000000	23.860739527	6.145997576
	323	1	-2.039000000	23.506670893	4.137974568
	324	1	-2.039000000	25.868762536	5.791928942
	325	1	0.000000000	25.514693901	3.783905934
	326	1	0.000000000	23.860739527	6.145997576
	327	1	2.039000000	23.506670893	4.137974568
	328	1	2.039000000	25.868762536	5.791928942
	329	1	4.078000000	25.514693901	3.783905934
	330	1	4.078000000	23.860739527	6.145997576
	331	1	6.117000000	23.506670893	4.137974568
	332	1	6.117000000	25.868762536	5.791928942
	333	1	8.157000000	25.514693901	3.783905934
	334	1	8.157000000	23.860739527	6.145997576
	335	1	10.196000000	23.506670893	4.137974568
	336	1	10.196000000	25.868762536	5.791928942
	337	1	12.235000000	25.514693901	3.783905934
	338	1	12.235000000	23.860739527	6.145997576
	339	1	14.274000000	23.506670893	4.137974568
	340	1	16.313000000	23.860739527	6.145997576
	341	1	-14.274000000	24.214808162	8.154020585
	342	1	-12.235000000	26.222831170	7.799951951
	343	1	-12.235000000	24.568876796	10.162043593
	344	1	-10.196000000	24.214808162	8.154020585
	345	1	-8.157000000	26.222831170	7.799951951
	346	1	-8.157000000	24.568876796	10.162043593
	347	1	-6.117000000	24.214808162	8.154020585
	348	1	-6.117000000	26.576899804	9.807974959
	349	1	-4.078000000	26.222831170	7.799951951
	350	1	-4.078000000	24.568876796	10.162043593
	351	1	-2.039000000	24.214808162	8.154020585
	352	1	-2.039000000	26.576899804	9.807974959
	353	1	0.000000000	26.222831170	7.799951951
	354	1	0.000000000	24.568876796	10.162043593
	355	1	2.039000000	24.214808162	8.154020585
	356	1	2.039000000	26.576899804	9.807974959
	357	1	4.078000000	26.222831170	7.799951951
	358	1	4.078000000	24.568876796	10.162043593
	359	1	6.117000000	24.214808162	8.154020585
	360	1	6.117000000	26.576899804	9.807974959
	361	1	8.157000000	26.222831170	7.799951951
	362	1	8.157000000	24.568876796	10.162043593
	363	1	10.196000000	24.214808162	8.154020585
	364	1	12.235000000	26.222831170	7.799951951
	365	1	12.235000000	24.568876796	10.162043593
	366	1	14.274000000	24.214808162	8.154020585
	367	1	-10.196000000	24.922945430	12.170066602
	368	1	-6.117000000	24.922945430	12.170066602
	369	1	-4.078000000	26.930968438	11.815997967
	370	1	-4.078000000	25.277014064	14.178089610
	371	1	-2.039000000	24.922945430	12.170066602
	372	1	0.000000000	26.930968438	11.815997967
	373	1	0.000000000	25.277014064	14.178089610
	374	1	2.039000000	24.922945430	12.170066602
	375	1	4.078000000	26.930968438	11.815997967
	376	1	4.078000000	25.277014064	14.178089610
	377	1	6.117000000	24.922945430	12.170066602
	378	1	10.196000000	24.922945430	12.170066602
	379	1	-4.078000000	14.178089610	-25.277014064
	380	1	0.000000000	14.178089610	-25.277014064
	381	1	4.078000000	14.178089610	-25.277014064
	382	1	-12.235000000	14.886400527	-21.259983240
	383	1	-10.196000000	14.532331892	-23.268006248
	384	1	-10.196000000	16.894423535	-21.614051874
	385	1	-8.157000000	16.540354901	-23.622074882
	386	1	-8.157000000	14.886400527	-21.259983240
	387	1	-6.117000000	14.532331892	-23.268006248
	388	1	-6.117000000	16.894423535	-21.614051874
	389	1	-4.078000000	16.540354901	-23.622074882
	390	1	-4.078000000	14.886400527	-21.259983240
	391	1	-2.039000000	14.532331892	-23.268006248
	392	1	-2.039000000	16.894423535	-21.614051874
	393	1	0.000000000	16.540354901	-23.622074882
	394	1	0.000000000	14.886400527	-21.259983240
	395	1	2.039000000	14.532331892	-23.268006248
	396	1	2.039000000	16.894423535	-21.614051874
	397	1	4.078000000	16.540354901	-23.622074882
	398	1	4.078000000	14.886400527	-21.259983240
	399	1	6.117000000	14.532331892	-23.268006248
	400	1	6.117000000	16.894423535	-21.614051874
	401	1	8.157000000	16.540354901	-23.622074882
	402	1	8.157000000	14.886400527	-21.259983240
	403	1	10.196000000	14.532331892	-23.268006248
	404	1	10.196000000	16.894423535	-21.614051874
	405	1	12.235000000	14.886400527	-21.259983240
	406	1	-16.313000000	15.594537795	-17.243937223
	407	1	-14.274000000	15.240469161	-19.251960231
	408	1	-14.274000000	17.602560804	-17.598005857
	409	1	-12.235000000	17.248492169	-19.606028866
	410	1	-12.235000000	15.594537795	-17.243937223
	411	1	-10.196000000	15.240469161	-19.251960231
	412	1	-10.196000000	17.602560804	-17.598005857
	413	1	-8.157000000	17.248492169	-19.606028866
	414	1	-8.157000000	15.594537795	-17.243937223
	415	1	-6.117000000	15.240469161	-19.251960231
	416	1	-6.117000000	17.602560804	-17.598005857
	417	1	-4.078000000	17.248492169	-19.606028866
	418	1	-4.078000000	15.594537795	-17.243937223
	419	1	-2.039000000	15.240469161	-19.251960231
	420	1	-2.039000000	17.602560804	-17.598005857
	421	1	0.000000000	17.248492169	-19.606028866
	422	1	0.000000000	15.594537795	-17.243937223
	423	1	2.039000000	15.240469161	-19.251960231
	424	1	2.039000000	17.602560804	-17.598005857
	425	1	4.078000000	17.248492169	-19.606028866
	426	1	4.078000000	15.594537795	-17.243937223
	427	1	6.117000000	15.240469161	-19.251960231
	428	1	6.117000000	17.602560804	-17.598005857
	429	1	8.157000000	17.248492169	-19.606028866
	430	1	8.157000000	15.594537795	-17.243937223
	431	1	10.196000000	15.240469161	-19.251960231
	432	1	10.196000000	17.602560804	-17.598005857
	433	1	12.235000000	17.248492169	-19.606028866
	434	1	12.235000000	15.594537795	-17.243937223
	435	1	14.274000000	15.240469161	-19.251960231
	436	1	14.274000000	17.602560804	-17.598005857
	437	1	16.313000000	15.594537795	-17.243937223
	438	1	-20.391000000	16.302675064	-13.227891206
	439	1	-18.352000000	15.948606430	-15.235914215
	440	1	-18.352000000	18.310698072	-13.581959841
	441	1	-16.313000000	17.956629438	-15.589982849
	442	1	-16.313000000	16.302675064	-13.227891206
	443	1	-14.274000000	15.948606430	-15.235914215
	444	1	-14.274000000	18.310698072	-13.581959841
	445	1	-12.235000000	17.956629438	-15.589982849
	446	1	-12.235000000	16.302675064	-13.227891206
	447	1	-10.196000000	15.948606430	-15.235914215
	448	1	-10.196000000	18.310698072	-13.581959841
	449	1	-8.157000000	17.956629438	-15.589982849
	450	1	-8.157000000	16.302675064	-13.227891206
	451	1	-6.117000000	15.948606430	-15.235914215
	452	1	-6.117000000	18.310698072	-13.581959841
	453	1	-4.078000000	17.956629438	-15.589982849
	454	1	-4.078000000	16.302675064	-13.227891206
	455	2	-2.039000000	15.948606430	-15.235914215
	456	1	-2.039000000	18.310698072	-13.581959841
	457	1	0.000000000	17.956629438	-15.589982849
	458	1	0.000000000	16.302675064	-13.227891206
	459	1	2.039000000	15.948606430	-15.235914215
	460	1	2.039000000	18.310698072	-13.581959841
	461	1	4.078000000	17.956629438	-15.589982849
	462	1	4.078000000	16.302675064	-13.227891206
	463	1	6.117000000	15.948606430	-15.235914215
	464	1	6.117000000	18.310698072	-13.581959841
	465	1	8.157000000	17.956629438	-15.589982849
	466	1	8.157000000	16.302675064	-13.227891206
	467	1	10.196000000	15.948606430	-15.235914215
	468	1	10.196000000	18.310698072	-13.581959841
	469	1	12.235000000	17.956629438	-15.589982849
	470	1	12.235000000	16.302675064	-13.227891206
	471	1	14.274000000	15.948606430	-15.235914215
	472	1	14.274000000	18.310698072	-13.581959841
	473	1	16.313000000	17.956629438	-15.589982849
	474	1	16.313000000	16.302675064	-13.227891206
	475	1	18.352000000	15.948606430	-15.235914215
	476	1	18.352000000	18.310698072	-13.581959841
	477	1	20.391000000	16.302675064	-13.227891206
	478	1	-20.391000000	18.664766706	-11.573936832
	479	1	-20.391000000	17.010985980	-9.210860382
	480	1	-18.352000000	16.656743698	-11.219868198
	481	1	-18.352000000	19.019008989	-9.564929016
	482	1	-16.313000000	18.664766706	-11.573936832
	483	1	-16.313000000	17.010985980	-9.210860382
	484	1	-14.274000000	16.656743698	-11.219868198
	485	1	-14.274000000	19.019008989	-9.564929016
	486	1	-12.235000000	18.664766706	-11.573936832
	487	1	-12.235000000	17.010985980	-9.210860382
	488	1	-10.196000000	16.656743698	-11.219868198
	489	1	-10.196000000	19.019008989	-9.564929016
	490	1	-8.157000000	18.664766706	-11.573936832
	491	2	-8.157000000	17.010985980	-9.210860382
	492	1	-6.117000000	16.656743698	-11.219868198
	493	1	-6.117000000	19.019008989	-9.564929016
	494	2	-4.078000000	18.664766706	-11.573936832
	495	1	-4.078000000	17.010985980	-9.210860382
	496	1	-2.039000000	16.656743698	-11.219868198
	497	1	-2.039000000	19.019008989	-9.564929016
	498	1	0.000000000	18.664766706	-11.573936832
	499	1	0.000000000	17.010985980	-9.210860382
	500	1	2.039000000	16.656743698	-11.219868198
	501	1	2.039000000	19.019008989	-9.564929016
	502	1	4.078000000	18.664766706	-11.573936832
	503	1	4.078000000	17.010985980	-9.210860382
	504	1	6.117000000	16.656743698	-11.219868198
	505	1	6.117000000	19.019008989	-9.564929016
	506	1	8.157000000	18.664766706	-11.573936832
	507	2	8.157000000	17.010985980	-9.210860382
	508	1	10.196000000	16.656743698	-11.219868198
	509	1	10.196000000	19.019008989	-9.564929016
	510	1	12.235000000	18.664766706	-11.573936832
	511	1	12.235000000	17.010985980	-9.210860382
	512	1	14.274000000	16.656743698	-11.219868198
	513	1	14.274000000	19.019008989	-9.564929016
	514	1	16.313000000	18.664766706	-11.573936832
	515	1	16.313000000	17.010985980	-9.210860382
	516	1	18.352000000	16.656743698	-11.219868198
	517	1	18.352000000	19.019008989	-9.564929016
	518	1	20.391000000	18.664766706	-11.573936832
	519	1	20.391000000	17.010985980	-9.210860382
	520	1	-22.431000000	17.365054615	-7.202837373
	521	1	-20.391000000	19.373077623	-7.556906008
	522	1	-20.391000000	17.719123249	-5.194814365
	523	1	-18.352000000	17.365054615	-7.202837373
	524	1	-18.352000000	19.727146257	-5.548882999
	525	1	-16.313000000	19.373077623	-7.556906008
	526	1	-16.313000000	17.719123249	-5.194814365
	527	1	-14.274000000	17.365054615	-7.202837373
	528	1	-14.274000000	19.727146257	-5.548882999
	529	1	-12.235000000	19.373077623	-7.556906008
	530	1	-12.235000000	17.719123249	-5.194814365
	531	1	-10.196000000	17.365054615	-7.202837373
	532	1	-10.196000000	19.727146257	-5.548882999
	533	2	-8.157000000	19.373077623	-7.556906008
	534	1	-8.157000000	17.719123249	-5.194814365
	535	1	-6.117000000	17.365054615	-7.202837373
	536	1	-6.117000000	19.727146257	-5.548882999
	537	1	-4.078000000	19.373077623	-7.556906008
	538	1	-4.078000000	17.719123249	-5.194814365
	539	2	-2.039000000	17.365054615	-7.202837373
	540	2	-2.039000000	19.727146257	-5.548882999
	541	1	0.000000000	19.373077623	-7.556906008
	542	1	0.000000000	17.719123249	-5.194814365
	543	1	2.039000000	17.365054615	-7.202837373
	544	1	2.039000000	19.727146257	-5.548882999
	545	2	4.078000000	19.373077623	-7.556906008
	546	1	4.078000000	17.719123249	-5.194814365
	547	1	6.117000000	17.365054615	-7.202837373
	548	2	6.117000000	19.727146257	-5.548882999
	549	1	8.157000000	19.373077623	-7.556906008
	550	1	8.157000000	17.719123249	-5.194814365
	551	1	10.196000000	17.365054615	-7.202837373
	552	1	10.196000000	19.727146257	-5.548882999
	553	1	12.235000000	19.373077623	-7.556906008
	554	1	12.235000000	17.719123249	-5.194814365
	555	1	14.274000000	17.365054615	-7.202837373
	556	1	14.274000000	19.727146257	-5.548882999
	557	1	16.313000000	19.373077623	-7.556906008
	558	1	16.313000000	17.719123249	-5.194814365
	559	1	18.352000000	17.365054615	-7.202837373
	560	1	18.352000000	19.727146257	-5.548882999
	561	1	20.391000000	19.373077623	-7.556906008
	562	1	20.391000000	17.719123249	-5.194814365
	563	1	22.431000000	17.365054615	-7.202837373
	564	1	-22.431000000	18.073191883	-3.186791357
	565	1	-20.391000000	20.081214892	-3.540859991
	566	1	-20.391000000	18.427260518	-1.178768348
	567	1	-18.352000000	18.073191883	-3.186791357
	568	1	-18.352000000	20.435283526	-1.532836982
	569	1	-16.313000000	20.081214892	-3.540859991
	570	1	-16.313000000	18.427260518	-1.178768348
	571	1	-14.274000000	18.073191883	-3.186791357
	572	1	-14.274000000	20.435283526	-1.532836982
	573	1	-12.235000000	20.081214892	-3.540859991
	574	1	-12.235000000	18.427260518	-1.178768348
	575	1	-10.196000000	18.073191883	-3.186791357
	576	1	-10.196000000	20.435283526	-1.532836982
	577	1	-8.157000000	20.081214892	-3.540859991
	578	2	-8.157000000	18.427260518	-1.178768348
	579	1	-6.117000000	18.073191883	-3.186791357
	580	1	-6.117000000	20.435283526	-1.532836982
	581	1	-4.078000000	20.081214892	-3.540859991
	582	1	-4.078000000	18.427260518	-1.178768348
	583	1	-2.039000000	18.073191883	-3.186791357
	584	1	-2.039000000	20.435283526	-1.532836982
	585	1	0.000000000	20.081214892	-3.540859991
	586	2	0.000000000	18.427260518	-1.178768348
	587	1	2.039000000	18.073191883	-3.186791357
	588	1	2.039000000	20.435283526	-1.532836982
	589	1	4.078000000	20.081214892	-3.540859991
	590	2	4.078000000	18.427260518	-1.178768348
	591	1	6.117000000	18.073191883	-3.186791357
	592	1	6.117000000	20.435283526	-1.532836982
	593	1	8.157000000	20.081214892	-3.540859991
	594	1	8.157000000	18.427260518	-1.178768348
	595	2	10.196000000	18.073191883	-3.186791357
	596	1	10.196000000	20.435283526	-1.532836982
	597	1	12.235000000	20.081214892	-3.540859991
	598	1	12.235000000	18.427260518	-1.178768348
	599	1	14.274000000	18.073191883	-3.186791357
	600	1	14.274000000	20.435283526	-1.532836982
	601	1	16.313000000	20.081214892	-3.540859991
	602	1	16.313000000	18.427260518	-1.178768348
	603	1	18.352000000	18.073191883	-3.186791357
	604	1	18.352000000	20.435283526	-1.532836982
	605	1	20.391000000	20.081214892	-3.540859991
	606	1	20.391000000	18.427260518	-1.178768348
	607	1	22.431000000	18.073191883	-3.186791357
	608	1	-22.431000000	18.781329152	0.829254660
	609	1	-20.391000000	20.789352160	0.475186026
	610	1	-20.391000000	19.135397786	2.837277669
	611	1	-18.352000000	18.781329152	0.829254660
	612	1	-18.352000000	21.143420794	2.483209034
	613	1	-16.313000000	20.789352160	0.475186026
	614	1	-16.313000000	19.135397786	2.837277669
	615	1	-14.274000000	18.781329152	0.829254660
	616	1	-14.274000000	21.143420794	2.483209034
	617	1	-12.235000000	20.789352160	0.475186026
	618	1	-12.235000000	19.135397786	2.837277669
	619	1	-10.196000000	18.781329152	0.829254660
	620	1	-10.196000000	21.143420794	2.483209034
	621	2	-8.157000000	20.789352160	0.475186026
	622	1	-8.157000000	19.135397786	2.837277669
	623	1	-6.117000000	18.781329152	0.829254660
	624	1	-6.117000000	21.143420794	2.483209034
	625	2	-4.078000000	20.789352160	0.475186026
	626	1	-4.078000000	19.135397786	2.837277669
	627	2	-2.039000000	18.781329152	0.829254660
	628	1	-2.039000000	21.143420794	2.483209034
	629	1	0.000000000	20.789352160	0.475186026
	630	2	0.000000000	19.135397786	2.837277669
	631	1	2.039000000	18.781329152	0.829254660
	632	1	2.039000000	21.143420794	2.483209034
	633	1	4.078000000	20.789352160	0.475186026
	634	1	4.078000000	19.135397786	2.837277669
	635	1	6.117000000	18.781329152	0.829254660
	636	1	6.117000000	21.143420794	2.483209034
	637	1	8.157000000	20.789352160	0.475186026
	638	1	8.157000000	19.135397786	2.837277669
	639	1	10.196000000	18.781329152	0.829254660
	640	1	10.196000000	21.143420794	2.483209034
	641	1	12.235000000	20.789352160	0.475186026
	642	1	12.235000000	19.135397786	2.837277669
	643	1	14.274000000	18.781329152	0.829254660
	644	1	14.274000000	21.143420794	2.483209034
	645	1	16.313000000	20.789352160	0.475186026
	646	1	16.313000000	19.135397786	2.837277669
	647	1	18.352000000	18.781329152	0.829254660
	648	1	18.352000000	21.143420794	2.483209034
	649	1	20.391000000	20.789352160	0.475186026
	650	1	20.391000000	19.135397786	2.837277669