 
     6525 atoms
         2 atom types 
 
              -77.66900100000001      79.445   xlo xhi
              -78.400999      78.400999   ylo yhi
              -82.916      82.904999   zlo zhi
 
 Atoms
 
      1    1                -0.021061        0.065551       -0.035706
           2	       1	-0.005272	       0.020508	       2.647400
           3	       1	1.930700	      -1.296600	       1.147600
           4	       1	-0.719190	      -2.225200	       1.288300
           5	       2	-2.390500	       0.000311	       1.209400
           6	       1	-0.756840	       2.294800	       1.236200
           7	       2	1.962200	       1.403200	       1.154900
           8	       2	-1.974700	       1.450700	      -1.092300
           9	       1	0.724870	       2.286900	      -1.163600
          10	       2	2.381500	       0.106100	      -1.254900
          11	       1	0.677800	      -2.173700	      -1.180800
          12	       2	-1.934200	      -1.374700	      -1.164200
          13	       2	-0.015216	       0.110900	      -2.657100
          14	       2	2.686100	       3.846100	       0.057939
          15	       2	-2.688800	       3.761600	       0.015907
          16	       2	-4.411600	      -1.369100	      -0.057452
          17	       2	0.005039	      -4.525200	      -0.009451
          18	       2	4.370100	      -1.397200	      -0.081309
          19	       2	2.633200	      -3.689000	       0.068725
          20	       2	-2.690800	      -3.639600	       0.018229
          21	       2	-4.409900	       1.461700	       0.084324
          22	       1	-0.028597	       4.596300	      -0.016271
          23	       1	4.332900	       1.533300	      -0.103300
          24	       1	3.083600	       2.415500	      -2.365500
          25	       1	-3.932700	       0.042925	      -2.397800
          26	       2	-3.177000	      -2.255800	       2.396100
          27	       1	3.955500	       0.054733	       2.393800
          28	       2	-1.252000	      -3.696600	      -2.413700
          29	       1	1.174100	       3.670000	       2.446400
          30	       2	1.185700	      -3.673300	       2.457900
          31	       2	-1.223400	       3.686100	      -2.407000
          32	       1	-3.087900	       2.322400	       2.512000
          33	       2	3.057700	      -2.205000	      -2.439800
          34	       2	2.026300	      -1.367700	       3.925400
          35	       2	-0.774010	      -2.251500	       3.937300
          36	       2	-2.428600	      -0.014010	       3.964200
          37	       1	-0.756820	       2.328000	       3.928600
          38	       1	1.970200	       1.515800	       3.891100
          39	       1	-1.997300	       1.515400	      -3.828300
          40	       2	0.777150	       2.533900	      -3.850200
          41	       2	2.351200	       0.064318	      -3.954400
          42	       1	0.710120	      -2.243200	      -3.875000
          43	       1	-1.978800	      -1.269700	      -3.887600
          44	       2	3.881800	       2.792300	       2.311600
          45	       1	-3.866800	      -2.828400	      -2.389900
          46	       2	1.524400	      -4.454900	      -2.369300
          47	       2	-1.493300	      -4.478700	       2.376400
          48	       2	-4.805600	      -0.099754	       2.411800
          49	       1	-1.531600	       4.604800	       2.382300
          50	       1	3.811100	      -2.748000	       2.377700
          51	       1	-3.892000	       2.930600	      -2.250100
          52	       1	1.506300	       4.669400	      -2.275500
          53	       1	4.696200	       0.054952	      -2.482000
          54	       1	0.080234	       0.050048	       5.368900
          55	       1	0.025500	       0.111360	      -5.303100
          56	       1	-6.365400	       0.045602	      -1.278500
          57	       2	6.357100	       0.008713	       1.088400
          58	       2	-2.103500	      -6.031900	      -1.194400
          59	       2	1.949700	       6.052900	       1.341500
          60	       2	5.213300	      -3.611300	      -1.223500
          61	       2	-5.139400	       3.821300	       1.278500
          62	       1	-2.031300	       6.149000	      -1.174500
          63	       2	1.958000	      -6.065100	       1.281100
          64	       1	5.191500	       3.867000	      -1.271600
          65	       2	-5.271600	      -3.622500	       1.234200
          66	       2	1.279300	      -3.728300	       5.209300
          67	       1	-1.303100	       3.829300	      -5.188200
          68	       1	-3.252500	      -2.378700	       5.149800
          69	       1	3.194400	       2.430300	      -5.220400
          70	       1	-3.213900	       2.391200	       5.204500
          71	       2	3.191100	      -2.258300	      -5.141000
          72	       2	1.260100	       3.867100	       5.195700
          73	       2	-1.157200	      -3.785000	      -5.127600
          74	       2	3.932500	       0.077985	       5.181300
          75	       2	-4.011400	       0.025197	      -5.151800
          76	       2	6.795900	      -1.320200	      -1.326100
          77	       2	6.362700	      -2.822700	       1.177800
          78	       1	0.839770	      -6.860000	      -1.104800
          79	       2	-0.776290	      -6.884000	       1.236900
          80	       1	-6.379900	      -2.804400	      -1.264500
          81	       2	-6.870800	      -1.339200	       1.073200
          82	       2	-4.676600	       5.218400	      -1.177800
          83	       2	-3.405200	       6.099400	       1.277600
          84	       1	4.705900	       5.184500	       1.129900
          85	       1	6.819400	       1.374800	      -1.355800
          86	       2	0.766220	       7.030100	      -1.102600
          87	       2	-0.711360	       6.970000	       1.208200
          88	       1	3.584500	       6.127500	      -1.157400
          89	       2	6.325600	       2.926100	       1.014800
          90	       1	-6.436300	       2.908200	      -1.136700
          91	       1	-6.882700	       1.492600	       1.320800
          92	       1	-4.679900	      -5.097200	      -1.204900
          93	       2	-3.470200	      -5.942000	       1.212800
          94	       2	3.497200	      -5.990500	      -1.222100
          95	       2	4.679100	      -5.129900	       1.132400
          96	       2	0.465100	      -6.091700	       3.634800
          97	       2	3.170800	      -5.121200	       3.632500
          98	       2	-5.704200	      -2.319200	       3.600200
          99	       2	-4.082500	      -4.584700	       3.573800
         100	       1	-3.958000	       4.586100	       3.701600
         101	       2	-5.609300	       2.323200	       3.659000
         102	       2	3.245000	       5.129800	       3.581100
         103	       1	0.416280	       6.123700	       3.740800
         104	       2	5.875300	      -1.393900	       3.667900
         105	       2	5.897200	       1.525600	       3.607300
         106	       2	-0.523650	       6.026400	      -3.521300
         107	       2	-3.170100	       5.153800	      -3.637400
         108	       1	5.507400	       2.345400	      -3.712600
         109	       2	3.846400	       4.693100	      -3.610100
         110	       2	4.061700	      -4.500800	      -3.662300
         111	       1	5.690100	      -2.194200	      -3.774000
         112	       1	-3.196200	      -5.097900	      -3.673000
         113	       1	-0.413050	      -6.015100	      -3.515200
         114	       2	-5.894500	       1.520300	      -3.615800
         115	       2	-5.874400	      -1.399600	      -3.582800
         116	       1	3.962200	      -2.908500	       5.075100
         117	       2	-4.955000	       0.029447	       5.091500
         118	       2	4.050100	       2.974200	       5.070600
         119	       1	-3.989400	       2.911200	      -5.035700
         120	       1	4.702300	       0.051243	      -5.280500
         121	       2	-3.817200	      -2.839000	      -5.253100
         122	       1	1.486300	       4.731000	      -5.086800
         123	       2	-1.419300	      -4.630900	       5.058800
         124	       2	1.664400	      -4.488400	      -5.166500
         125	       2	-1.500700	       4.620700	       5.206700
         126	       2	-2.470600	       0.093075	       6.625800
         127	       1	-2.014100	       1.429800	      -6.563300
         128	       1	-0.796900	      -2.299200	       6.596300
         129	       1	0.724720	       2.444800	      -6.524400
         130	       2	-0.611010	       2.400400	       6.600300
         131	       2	2.387400	       0.105560	      -6.663400
         132	       1	1.918200	      -1.379300	       6.654900
         133	       1	0.743200	      -2.324000	      -6.590000
         134	       1	2.038800	       1.534100	       6.495400
         135	       2	-1.801300	      -1.487500	      -6.726200
         136	       2	5.887800	      -4.192100	       3.491500
         137	       1	-7.290100	      -0.018910	       3.632100
         138	       1	-2.240800	       6.803900	       3.753600
         139	       1	5.886200	       4.237500	       3.483200
         140	       1	-5.856200	       4.328100	      -3.431000
         141	       2	7.213200	       0.105610	      -3.748700
         142	       2	2.269200	      -6.722600	      -3.597500
         143	       2	-5.800300	      -4.172200	      -3.690600
         144	       1	2.189300	       6.922500	      -3.514400
         145	       1	-2.322900	      -6.767900	       3.565200
         146	       1	0.060277	      -0.020504	       8.035500
         147	       1	0.036503	       0.083379	      -8.019100
         148	       2	-2.717200	       8.479100	      -0.017214
         149	       1	2.880300	      -8.375600	       0.052634
         150	       1	-2.754500	      -8.428500	      -0.088644
         151	       1	2.695600	       8.426400	       0.040005
         152	       1	7.252400	      -5.137300	      -0.037272
         153	       2	-7.235800	       5.234000	       0.098140
         154	       2	7.200400	       5.364400	      -0.042406
         155	       2	-7.221900	      -5.178000	      -0.025245
         156	       1	-8.907300	       0.035792	      -0.017847
         157	       1	8.909700	       0.136530	      -0.034754
         158	       1	7.659900	      -3.722800	      -2.394400
         159	       1	-7.656600	       3.853800	       2.583300
         160	       1	-8.470000	       1.451400	      -2.440800
         161	       1	8.393700	      -1.370900	       2.416500
         162	       2	-8.534000	      -1.373500	      -2.405900
         163	       1	8.372800	       1.524300	       2.330800
         164	       1	6.077800	      -5.997800	      -2.398300
         165	       1	-5.882200	       6.163000	       2.585000
         166	       1	-1.263600	       8.465000	      -2.344400
         167	       1	1.237500	      -8.413100	       2.437700
         168	       1	-4.060100	       7.602400	      -2.328100
         169	       1	3.989700	      -7.524800	       2.426600
         170	       1	-3.932700	      -7.467300	      -2.575200
         171	       1	4.028900	       7.592300	       2.458200
         172	       2	7.614300	       3.788800	      -2.479800
         173	       2	-7.732700	      -3.723700	       2.370300
         174	       2	6.009200	       6.207700	      -2.455300
         175	       1	-6.061100	      -6.066400	       2.321600
         176	       2	-1.219700	      -8.365700	      -2.378200
         177	       1	1.314500	       8.457500	       2.452500
         178	       1	-5.670700	       2.364300	       6.435700
         179	       2	5.826100	      -2.243600	      -6.409300
         180	       2	3.198900	       5.288300	       6.457800
         181	       2	-3.166300	      -5.225700	      -6.439400
         182	       2	0.452910	       6.280900	       6.507000
         183	       2	-0.357970	      -6.025100	      -6.327700
         184	       2	5.982500	      -1.282200	       6.446500
         185	       2	-6.059600	       1.491400	      -6.395000
         186	       1	6.029000	       1.517400	       6.381600
         187	       2	-5.927200	      -1.332200	      -6.464200
         188	       2	0.539600	      -6.081000	       6.449300
         189	       1	-0.481200	       6.169500	      -6.383600
         190	       2	3.279800	      -5.207500	       6.445000
         191	       2	-3.320900	       5.192500	      -6.357500
         192	       1	-5.642600	      -2.286600	       6.442300
         193	       1	5.689500	       2.323400	      -6.478500
         194	       2	-3.948300	      -4.643200	       6.396800
         195	       2	3.987000	       4.764900	      -6.365900
         196	       2	-3.964700	       4.765400	       6.519200
         197	       2	4.125100	      -4.610200	      -6.480100
         198	       1	-3.272700	       2.510900	       7.896100
         199	       2	3.193600	      -2.255400	      -7.875100
         200	       1	1.200500	      -3.725900	       7.987800
         201	       1	-1.242900	       3.738900	      -7.882100
         202	       1	3.929700	       0.150270	       7.917100
         203	       2	-3.873200	      -0.056097	      -7.972200
         204	       1	-3.302400	      -2.212400	       7.938100
         205	       2	3.345600	       2.230900	      -7.985800
         206	       1	1.288200	       3.905200	       7.971400
         207	       2	-1.255500	      -3.856400	      -7.941600
         208	       1	5.462500	       7.654600	       0.031681
         209	       2	-5.537400	       7.449500	       0.200020
         210	       2	-8.861900	      -2.845200	      -0.058887
         211	       2	-8.874700	       2.835700	       0.114020
         212	       2	-0.106320	       9.358600	      -0.010344
         213	       1	8.792800	       2.917800	      -0.066811
         214	       2	0.100460	      -9.206300	       0.014423
         215	       1	8.857500	      -2.711200	      -0.033616
         216	       1	5.465300	      -7.509700	       0.012513
         217	       1	-5.404900	      -7.506600	      -0.145310
         218	       1	6.317600	       4.713200	      -4.946200
         219	       2	-7.841600	       0.042518	      -4.860500
         220	       2	-6.544800	      -4.607900	       4.772600
         221	       1	7.851400	       0.060276	       4.819800
         222	       1	-2.365700	      -7.398900	      -4.893400
         223	       2	2.443100	       7.503000	       4.925000
         224	       1	2.446000	      -7.416400	       4.974700
         225	       1	-2.452000	       7.453700	      -4.764400
         226	       1	-6.427200	       4.579900	       4.946800
         227	       2	6.428000	      -4.517800	      -4.888700
         228	       2	4.008700	      -2.785800	       7.747900
         229	       1	-1.544500	      -4.569100	       7.858100
         230	       2	-4.801700	       0.146730	       7.886400
         231	       1	-1.512500	       4.662000	       8.021900
         232	       1	4.054600	       2.872600	       7.792000
         233	       1	-4.012500	       2.926600	      -7.705900
         234	       1	1.555500	       4.563800	      -7.856200
         235	       1	4.866400	      -0.012151	      -7.971900
         236	       1	1.564500	      -4.575900	      -7.892000
         237	       1	-3.903500	      -2.827600	      -8.019700
         238	       2	4.259700	       8.417000	      -2.418200
         239	       1	-6.747300	       6.625400	      -2.230500
         240	       1	6.720400	       6.712900	       2.387300
         241	       2	8.394400	      -4.290400	       2.292100
         242	       2	-9.337500	      -1.365000	       2.460500
         243	       1	9.314700	       1.539000	      -2.495600
         244	       1	1.463400	       9.361500	      -2.433200
         245	       2	8.379400	       4.365200	       2.342600
         246	       1	-6.659300	      -6.518900	      -2.490500
         247	       1	-4.155500	       8.454700	       2.513200
         248	       1	-4.291200	      -8.222900	       2.395100
         249	       2	-8.400100	       4.383400	      -2.243500
         250	       1	1.466600	      -9.112600	      -2.457500
         251	       2	-9.327900	       1.463100	       2.473200
         252	       2	9.369000	      -1.301500	      -2.342500
         253	       1	-1.527500	      -9.177100	       2.346900
         254	       2	-1.544700	       9.180400	       2.515500
         255	       2	4.283100	      -8.262900	      -2.479500
         256	       2	-8.353200	      -4.217700	      -2.508200
         257	       1	6.647200	      -6.588500	       2.375700
         258	       2	-5.226300	       6.696800	      -4.726600
         259	       2	5.187700	      -6.581500	       4.836500
         260	       2	4.733600	      -6.893300	      -4.835100
         261	       2	-4.557000	       6.893500	       5.062700
         262	       1	7.919900	      -2.799000	       4.778900
         263	       1	8.199200	      -2.214700	      -4.807900
         264	       2	-5.198600	      -6.554300	      -4.920700
         265	       1	-4.819500	      -6.728300	       4.822000
         266	       2	0.261090	      -8.375600	      -4.827200
         267	       1	-7.950000	       2.963000	      -4.648400
         268	       1	7.888000	       2.935000	       4.879200
         269	       1	-7.842200	      -2.717900	      -4.777400
         270	       1	-8.052300	       2.342600	       4.955800
         271	       2	5.144400	       6.590400	       4.810400
         272	       2	8.083100	       2.538600	      -4.804300
         273	       2	-8.106900	      -2.280500	       4.846800
         274	       1	4.664400	       7.003700	      -4.772400
         275	       2	-0.268600	       8.446400	       4.951600
         276	       1	-0.296290	      -8.356100	       4.801100
         277	       2	0.188530	       8.371700	      -4.827200
         278	       1	-6.022900	       4.300700	      -6.206200
         279	       2	-2.153000	      -6.899700	       6.414000
         280	       1	2.204000	       7.013000	      -6.398600
         281	       1	-2.215400	       6.968200	       6.510600
         282	       2	7.380100	       0.048290	      -6.420000
         283	       2	5.910600	      -4.271700	       6.271200
         284	       2	2.343200	      -6.816100	      -6.402200
         285	       1	5.945200	       4.383100	       6.345200
         286	       1	-5.851700	      -4.122300	      -6.454200
         287	       1	-7.304100	      -0.070155	       6.543500
         288	       1	0.743380	       2.316800	      -9.339800
         289	       2	2.029800	       1.525600	       9.271000
         290	       1	-0.869510	      -2.404400	       9.348900
         291	       2	2.529500	      -0.064061	      -9.437900
         292	       1	-0.766290	       2.354700	       9.338400
         293	       2	-1.993700	       1.360200	      -9.306800
         294	       1	0.762390	      -2.330800	      -9.287600
         295	       1	-2.439500	      -0.022810	       9.373800
         296	       2	2.007500	      -1.482500	       9.408200
         297	       2	-1.865900	      -1.421200	      -9.443400
         298	       1	7.785400	       5.756400	       4.682800
         299	       2	-7.754100	      -5.597500	      -4.996100
         300	       2	2.928800	      -9.006000	      -4.746700
         301	       1	-2.966600	      -9.057800	       4.799400
         302	       1	-9.755500	      -0.002325	       4.893500
         303	       2	-3.003000	       9.193900	       4.962300
         304	       2	7.788400	      -5.672700	       4.683300
         305	       2	-7.946200	       5.715800	      -4.640200
         306	       2	2.817000	       9.234800	      -4.867000
         307	       2	9.727800	       0.074197	      -4.783500
         308	       2	0.115210	      -0.044013	      10.725000
         309	       2	0.129990	      -0.099378	     -10.742000
         310	       2	7.968400	      -7.619000	      -1.159100
         311	       1	-7.982800	       7.557400	       1.455900
         312	       1	9.700200	      -5.230800	      -1.271900
         313	       1	-9.660300	       5.205600	       1.296400
         314	       1	-10.960000	       1.531300	      -1.131200
         315	       2	10.941000	      -1.304400	       1.219800
         316	       2	-10.995000	      -1.403400	      -1.209800
         317	       2	10.960000	       1.626400	       1.141900
         318	       1	-4.850100	       9.949800	      -1.104000
         319	       2	4.834500	      -9.964900	       1.228700
         320	       1	9.614500	       5.357400	      -1.207600
         321	       2	-9.689600	      -5.138500	       1.168500
         322	       2	8.087600	       7.739400	      -1.232300
         323	       1	-8.021300	      -7.471700	       1.163400
         324	       1	-4.715300	      -9.839700	      -1.365600
         325	       2	4.756600	      10.003000	       1.251200
         326	       2	-1.987500	     -10.692000	      -1.244200
         327	       2	2.096100	      10.808000	       1.304400
         328	       2	-2.107300	      10.901000	      -1.235400
         329	       2	2.046500	     -10.772000	       1.174400
         330	       2	-3.251800	      -9.815000	      -3.823600
         331	       1	3.294700	       9.868100	       3.818000
         332	       1	-3.245200	       9.923000	      -3.721600
         333	       2	3.309700	      -9.918100	       3.615200
         334	       1	-10.487000	       0.061076	      -3.664400
         335	       1	10.432000	       0.141780	       3.528500
         336	       1	8.480500	      -6.115500	      -3.585100
         337	       1	-8.439200	       6.110400	       3.845900
         338	       1	8.535600	       6.200200	      -3.774100
         339	       2	-8.473900	      -6.090800	       3.638000
         340	       1	2.549600	      -7.591200	       7.664900
         341	       2	-2.493900	       7.546400	      -7.554200
         342	       1	-6.511600	      -4.740900	       7.627800
         343	       2	6.375500	       4.722100	      -7.675400
         344	       2	-6.422900	       4.706500	       7.686300
         345	       2	6.559300	      -4.626600	      -7.698500
         346	       2	2.518600	       7.665900	       7.780700
         347	       1	-2.435500	      -7.418300	      -7.716100
         348	       2	7.925400	       0.099139	       7.748800
         349	       1	-7.963000	      -0.022511	      -7.633400
         350	       1	0.425130	       6.182800	       9.230500
         351	       1	-0.381770	      -6.151000	      -9.191800
         352	       1	-5.715700	      -2.271900	       9.205600
         353	       2	5.746800	       2.342300	      -9.353000
         354	       2	5.914200	      -1.430100	       9.205300
         355	       2	-5.945800	       1.516800	      -9.100600
         356	       1	5.983700	       1.485900	       9.280700
         357	       2	-5.906100	      -1.445800	      -9.323700
         358	       2	-4.058200	      -4.567500	       9.143800
         359	       2	3.991800	       4.648400	      -9.157900
         360	       1	3.065300	      -5.349300	       9.267000
         361	       1	-3.205000	       5.275000	      -9.086700
         362	       1	-4.113900	       4.720100	       9.321900
         363	       1	4.096900	      -4.699200	      -9.167200
         364	       2	-5.669300	       2.510500	       9.211200
         365	       2	5.645000	      -2.353300	      -9.193300
         366	       2	0.364460	      -6.049400	       9.216100
         367	       2	-0.506250	       6.042100	      -9.121500
         368	       1	3.261300	       5.376300	       9.230400
         369	       2	-3.347700	      -5.277500	      -9.292100
         370	       1	9.277700	       6.928700	       1.260000
         371	       1	-9.181200	      -6.667700	      -1.299100
         372	       1	-3.511000	      10.795000	       1.217700
         373	       2	3.534300	     -10.690000	      -1.274200
         374	       2	-3.557900	     -10.776000	       1.204000
         375	       1	3.584000	      10.833000	      -1.200000
         376	       2	9.387800	      -6.651300	       1.130400
         377	       2	-9.285800	       6.661500	      -1.094900
         378	       1	-11.395000	      -0.039130	       1.194200
         379	       2	11.371000	       0.141250	      -1.285300
         380	       2	-10.547000	      -2.895100	      -3.557100
         381	       2	10.405000	       2.947800	       3.709900
         382	       2	10.133000	       3.902500	      -3.710100
         383	       1	-10.143000	      -3.669900	       3.608500
         384	       1	-6.049300	       9.037400	      -3.375900
         385	       2	5.982300	      -9.057600	       3.692200
         386	       1	6.719200	      -8.417000	      -3.744500
         387	       2	-6.716500	       8.418500	       3.772000
         388	       1	-5.960700	      -8.956100	      -3.793000
         389	       2	6.033800	       9.056000	       3.822800
         390	       1	10.084000	      -3.739200	      -3.738300
         391	       2	-10.156000	       3.872800	       3.748900
         392	       2	-10.475000	       2.985200	      -3.454400
         393	       2	10.434000	      -2.778600	       3.623000
         394	       1	-0.558570	      10.818000	      -3.704200
         395	       1	0.580000	     -10.728000	       3.682400
         396	       2	-0.567580	     -10.665000	      -3.671500
         397	       2	0.481150	      10.804000	       3.681800
         398	       1	6.800100	       8.547400	      -3.646000
         399	       1	-6.783400	      -8.446000	       3.557000
         400	       1	-8.010600	       2.397500	       7.773000
         401	       1	8.218200	      -2.184300	      -7.692600
         402	       2	-4.764600	      -6.873000	       7.648300
         403	       1	4.658700	       7.125500	      -7.586900
         404	       2	7.883600	      -2.856600	       7.592400
         405	       2	-8.053000	       2.966600	      -7.565400
         406	       1	-4.708100	       6.997200	       7.846300
         407	       1	4.901500	      -7.129000	      -7.579800
         408	       1	8.050500	       2.922700	       7.713900
         409	       1	-7.963900	      -2.808300	      -7.696900
         410	       1	5.232500	       6.693200	       7.701800
         411	       2	-5.240100	      -6.524900	      -7.721700
         412	       1	-8.208600	      -2.393800	       7.703700
         413	       2	8.142600	       2.468600	      -7.692000
         414	       2	-0.244720	       8.483000	       7.858700
         415	       1	0.366900	      -8.330900	      -7.697500
         416	       2	-0.142060	      -8.415400	       7.636000
         417	       1	0.158700	       8.513700	      -7.707000
         418	       1	5.188200	      -6.675000	       7.717900
         419	       2	-5.286600	       6.770200	      -7.556600
         420	       2	-3.303100	      -2.268500	      10.721000
         421	       2	3.218000	       2.389300	     -10.697000
         422	       2	1.121800	      -3.820500	      10.734000
         423	       2	-1.202500	       3.798100	     -10.716000
         424	       2	1.176400	       3.815500	      10.704000
         425	       1	-1.353200	      -3.891500	     -10.717000
         426	       2	-3.271400	       2.345700	      10.644000
         427	       2	3.259600	      -2.404500	     -10.635000
         428	       1	3.985800	       0.107600	      10.649000
         429	       2	-3.891500	      -0.071789	     -10.688000
         430	       1	11.326000	      -2.802400	      -1.176700
         431	       1	10.888000	      -4.216300	       1.133600
         432	       1	-0.676500	     -11.615000	       1.168900
         433	       1	-10.901000	      -4.373300	      -1.247000
         434	       1	-11.300000	      -2.826400	       1.156500
         435	       2	-7.483300	       8.937700	      -0.979460
         436	       2	6.271500	       9.958300	      -1.200100
         437	       2	11.290000	       3.048000	      -1.357300
         438	       1	10.796000	       4.467100	       1.137800
         439	       1	0.747260	     -11.543000	      -1.242400
         440	       2	7.461300	       9.083900	       1.124300
         441	       2	6.210400	      -9.777300	      -1.290200
         442	       1	7.566000	      -8.861700	       1.130500
         443	       1	-7.463700	      -8.840700	      -1.290400
         444	       2	-6.180100	      -9.791800	       1.101700
         445	       1	-10.998000	       4.318000	      -1.025700
         446	       1	-11.413000	       2.826800	       1.283900
         447	       2	0.773550	      11.628000	      -1.209700
         448	       2	-6.261300	       9.952400	       1.413300
         449	       1	-0.705810	      11.638000	       1.280800
         450	       2	-8.889100	      -4.711700	       6.018000
         451	       1	-7.240500	      -7.042800	       6.098200
         452	       2	-7.105300	       6.952100	       6.243900
         453	       1	-8.894200	       4.657100	       6.208800
         454	       2	9.881800	      -1.291200	       6.049200
         455	       2	8.811500	       4.832300	      -6.168000
         456	       2	7.015800	       7.046500	      -6.118700
         457	       1	7.246000	      -6.869300	      -6.103300
         458	       2	8.912500	      -4.527900	      -6.065100
         459	       1	-9.885100	       1.491900	      -5.988000
         460	       1	-1.789900	       9.951500	      -6.025900
         461	       2	-4.456100	       9.025700	      -5.997800
         462	       2	4.359300	      -8.960600	       6.088800
         463	       2	4.379500	       8.987800	       6.195600
         464	       2	1.736500	       9.846800	       6.260300
         465	       2	1.730800	      -9.828400	       6.135600
         466	       1	-4.303500	      -8.764900	      -6.207700
         467	       1	-1.628500	      -9.620000	      -6.342300
         468	       2	9.975800	       1.498000	       6.082500