
        6699 atoms 
           2 atom types 
  -60.0000000       60.000000     xlo xhi 
  -60.0000000       60.000000     ylo yhi 
  -60.0000000       60.000000     zlo zhi 
 Atoms 

	1	1	0.000000000	0.000000000	0.000000000
	2	1	0.000000000	1.441790727	-2.497254793
	3	1	2.039000000	1.969522760	-0.527732033
	4	1	2.039000000	-0.527732033	-1.969522760
	5	2	-8.157000000	-22.966808745	16.709613791
	6	2	-6.117000000	-22.439076712	18.679136551
	7	2	-4.078000000	-22.966808745	16.709613791
	8	2	-2.039000000	-22.439076712	18.679136551
	9	2	0.000000000	-22.966808745	16.709613791
	10	2	2.039000000	-22.439076712	18.679136551
	11	2	4.078000000	-22.966808745	16.709613791
	12	2	6.117000000	-22.439076712	18.679136551
	13	2	8.157000000	-22.966808745	16.709613791
	14	2	-12.235000000	-24.022531630	12.769602346
	15	2	-10.196000000	-23.494540778	14.740091032
	16	2	-8.157000000	-24.022531630	12.769602346
	17	2	-6.117000000	-23.494540778	14.740091032
	18	2	-6.117000000	-25.992054390	13.297334379
	19	2	-4.078000000	-25.464063538	15.267823065
	20	2	-4.078000000	-24.022531630	12.769602346
	21	2	-2.039000000	-23.494540778	14.740091032
	22	2	-2.039000000	-25.992054390	13.297334379
	23	2	0.000000000	-25.464063538	15.267823065
	24	2	0.000000000	-24.022531630	12.769602346
	25	2	2.039000000	-23.494540778	14.740091032
	26	2	2.039000000	-25.992054390	13.297334379
	27	2	4.078000000	-25.464063538	15.267823065
	28	2	4.078000000	-24.022531630	12.769602346
	29	2	6.117000000	-23.494540778	14.740091032
	30	2	6.117000000	-25.992054390	13.297334379
	31	2	8.157000000	-24.022531630	12.769602346
	32	2	10.196000000	-23.494540778	14.740091032
	33	2	12.235000000	-24.022531630	12.769602346
	34	2	-12.235000000	-25.077995696	8.830556826
	35	2	-10.196000000	-24.550263663	10.800079586
	36	2	-8.157000000	-26.519786423	11.327811619
	37	2	-8.157000000	-25.077995696	8.830556826
	38	2	-6.117000000	-24.550263663	10.800079586
	39	2	-6.117000000	-27.047518456	9.358288859
	40	2	-4.078000000	-26.519786423	11.327811619
	41	2	-4.078000000	-25.077995696	8.830556826
	42	2	-2.039000000	-24.550263663	10.800079586
	43	2	-2.039000000	-27.047518456	9.358288859
	44	2	0.000000000	-26.519786423	11.327811619
	45	2	0.000000000	-25.077995696	8.830556826
	46	2	2.039000000	-24.550263663	10.800079586
	47	2	2.039000000	-27.047518456	9.358288859
	48	2	4.078000000	-26.519786423	11.327811619
	49	2	4.078000000	-25.077995696	8.830556826
	50	2	6.117000000	-24.550263663	10.800079586
	51	2	6.117000000	-27.047518456	9.358288859
	52	2	8.157000000	-26.519786423	11.327811619
	53	2	8.157000000	-25.077995696	8.830556826
	54	2	10.196000000	-24.550263663	10.800079586
	55	2	12.235000000	-25.077995696	8.830556826
	56	2	-12.235000000	-26.133459762	4.891511307
	57	2	-10.196000000	-25.605727729	6.861034067
	58	2	-8.157000000	-27.575250489	7.388766100
	59	2	-8.157000000	-26.133459762	4.891511307
	60	2	-6.117000000	-25.605727729	6.861034067
	61	2	-6.117000000	-28.102982522	5.419243340
	62	2	-4.078000000	-27.575250489	7.388766100
	63	2	-4.078000000	-26.133459762	4.891511307
	64	2	-2.039000000	-25.605727729	6.861034067
	65	2	-2.039000000	-28.102982522	5.419243340
	66	2	0.000000000	-27.575250489	7.388766100
	67	2	0.000000000	-26.133459762	4.891511307
	68	2	2.039000000	-25.605727729	6.861034067
	69	2	2.039000000	-28.102982522	5.419243340
	70	2	4.078000000	-27.575250489	7.388766100
	71	2	4.078000000	-26.133459762	4.891511307
	72	2	6.117000000	-25.605727729	6.861034067
	73	2	6.117000000	-28.102982522	5.419243340
	74	2	8.157000000	-27.575250489	7.388766100
	75	2	8.157000000	-26.133459762	4.891511307
	76	2	10.196000000	-25.605727729	6.861034067
	77	2	12.235000000	-26.133459762	4.891511307
	78	2	-12.235000000	-27.188923828	0.952465787
	79	2	-10.196000000	-26.661191795	2.921988547
	80	2	-8.157000000	-28.630714555	3.449720580
	81	2	-8.157000000	-27.188923828	0.952465787
	82	2	-6.117000000	-26.661191795	2.921988547
	83	2	-6.117000000	-29.158446588	1.480197820
	84	2	-4.078000000	-28.630714555	3.449720580
	85	2	-4.078000000	-27.188923828	0.952465787
	86	2	-2.039000000	-26.661191795	2.921988547
	87	2	-2.039000000	-29.158446588	1.480197820
	88	2	0.000000000	-28.630714555	3.449720580
	89	2	0.000000000	-27.188923828	0.952465787
	90	2	2.039000000	-26.661191795	2.921988547
	91	2	2.039000000	-29.158446588	1.480197820
	92	2	4.078000000	-28.630714555	3.449720580
	93	2	4.078000000	-27.188923828	0.952465787
	94	2	6.117000000	-26.661191795	2.921988547
	95	2	6.117000000	-29.158446588	1.480197820
	96	2	8.157000000	-28.630714555	3.449720580
	97	2	8.157000000	-27.188923828	0.952465787
	98	2	10.196000000	-26.661191795	2.921988547
	99	2	12.235000000	-27.188923828	0.952465787
	100	2	-10.196000000	-27.716914680	-1.018022898
	101	2	-8.157000000	-28.244646713	-2.987545658
	102	2	-6.117000000	-27.716914680	-1.018022898
	103	2	-4.078000000	-29.686437440	-0.490290865
	104	2	-4.078000000	-28.244646713	-2.987545658
	105	2	-2.039000000	-27.716914680	-1.018022898
	106	2	0.000000000	-29.686437440	-0.490290865
	107	2	0.000000000	-28.244646713	-2.987545658
	108	2	2.039000000	-27.716914680	-1.018022898
	109	2	4.078000000	-29.686437440	-0.490290865
	110	2	4.078000000	-28.244646713	-2.987545658
	111	2	6.117000000	-27.716914680	-1.018022898
	112	2	8.157000000	-28.244646713	-2.987545658
	113	2	10.196000000	-27.716914680	-1.018022898
	114	2	-6.117000000	-28.772378746	-4.957068418
	115	2	-2.039000000	-28.772378746	-4.957068418
	116	2	2.039000000	-28.772378746	-4.957068418
	117	2	6.117000000	-28.772378746	-4.957068418
	118	2	-4.078000000	-16.916835094	23.532240765
	119	2	0.000000000	-16.916835094	23.532240765
	120	2	4.078000000	-16.916835094	23.532240765
	121	2	-12.235000000	-17.972299160	19.593195245
	122	2	-10.196000000	-17.444567127	21.562718005
	123	2	-8.157000000	-17.972299160	19.593195245
	124	2	-6.117000000	-17.444567127	21.562718005
	125	2	-6.117000000	-19.941821920	20.120927278
	126	2	-4.078000000	-19.414089887	22.090450038
	127	2	-4.078000000	-17.972299160	19.593195245
	128	2	-2.039000000	-17.444567127	21.562718005
	129	2	-2.039000000	-19.941821920	20.120927278
	130	2	0.000000000	-19.414089887	22.090450038
	131	2	0.000000000	-17.972299160	19.593195245
	132	2	2.039000000	-17.444567127	21.562718005
	133	2	2.039000000	-19.941821920	20.120927278
	134	2	4.078000000	-19.414089887	22.090450038
	135	2	4.078000000	-17.972299160	19.593195245
	136	2	6.117000000	-17.444567127	21.562718005
	137	2	6.117000000	-19.941821920	20.120927278
	138	2	8.157000000	-17.972299160	19.593195245
	139	2	10.196000000	-17.444567127	21.562718005
	140	2	12.235000000	-17.972299160	19.593195245
	141	2	-16.313000000	-19.027763226	15.654149726
	142	2	-14.274000000	-18.500031193	17.623672485
	143	2	-12.235000000	-20.469553952	18.151404518
	144	2	-12.235000000	-19.027763226	15.654149726
	145	2	-10.196000000	-18.500031193	17.623672485
	146	2	-10.196000000	-20.997285985	16.181881759
	147	2	-8.157000000	-20.469553952	18.151404518
	148	2	-8.157000000	-19.027763226	15.654149726
	149	2	-6.117000000	-18.500031193	17.623672485
	150	2	-6.117000000	-20.997285985	16.181881759
	151	2	-4.078000000	-20.469553952	18.151404518
	152	2	-4.078000000	-19.027763226	15.654149726
	153	2	-2.039000000	-18.500031193	17.623672485
	154	2	-2.039000000	-20.997285985	16.181881759
	155	2	0.000000000	-20.469553952	18.151404518
	156	2	0.000000000	-19.027763226	15.654149726
	157	2	2.039000000	-18.500031193	17.623672485
	158	2	2.039000000	-20.997285985	16.181881759
	159	2	4.078000000	-20.469553952	18.151404518
	160	2	4.078000000	-19.027763226	15.654149726
	161	2	6.117000000	-18.500031193	17.623672485
	162	2	6.117000000	-20.997285985	16.181881759
	163	2	8.157000000	-20.469553952	18.151404518
	164	2	8.157000000	-19.027763226	15.654149726
	165	2	10.196000000	-18.500031193	17.623672485
	166	2	10.196000000	-20.997285985	16.181881759
	167	2	12.235000000	-20.469553952	18.151404518
	168	2	12.235000000	-19.027763226	15.654149726
	169	2	14.274000000	-18.500031193	17.623672485
	170	2	16.313000000	-19.027763226	15.654149726
	171	2	-16.313000000	-20.083486111	11.714138280
	172	2	-14.274000000	-19.555495259	13.684626966
	173	2	-14.274000000	-22.053008870	12.241870313
	174	2	-12.235000000	-21.525018018	14.212358999
	175	2	-12.235000000	-20.083486111	11.714138280
	176	2	-10.196000000	-19.555495259	13.684626966
	177	2	-10.196000000	-22.053008870	12.241870313
	178	2	-8.157000000	-21.525018018	14.212358999
	179	2	-8.157000000	-20.083486111	11.714138280
	180	2	-6.117000000	-19.555495259	13.684626966
	181	2	-6.117000000	-22.053008870	12.241870313
	182	2	-4.078000000	-21.525018018	14.212358999
	183	2	-4.078000000	-20.083486111	11.714138280
	184	2	-2.039000000	-19.555495259	13.684626966
	185	2	-2.039000000	-22.053008870	12.241870313
	186	2	0.000000000	-21.525018018	14.212358999
	187	2	0.000000000	-20.083486111	11.714138280
	188	2	2.039000000	-19.555495259	13.684626966
	189	2	2.039000000	-22.053008870	12.241870313
	190	2	4.078000000	-21.525018018	14.212358999
	191	2	4.078000000	-20.083486111	11.714138280
	192	2	6.117000000	-19.555495259	13.684626966
	193	2	6.117000000	-22.053008870	12.241870313
	194	2	8.157000000	-21.525018018	14.212358999
	195	2	8.157000000	-20.083486111	11.714138280
	196	2	10.196000000	-19.555495259	13.684626966
	197	2	10.196000000	-22.053008870	12.241870313
	198	2	12.235000000	-21.525018018	14.212358999
	199	2	12.235000000	-20.083486111	11.714138280
	200	2	14.274000000	-19.555495259	13.684626966
	201	2	14.274000000	-22.053008870	12.241870313
	202	2	16.313000000	-20.083486111	11.714138280
	203	2	-18.352000000	-20.611218144	9.744615520
	204	2	-16.313000000	-22.580740903	10.272347553
	205	2	-16.313000000	-21.138950177	7.775092760
	206	2	-14.274000000	-20.611218144	9.744615520
	207	2	-14.274000000	-23.108472936	8.302824793
	208	2	-12.235000000	-22.580740903	10.272347553
	209	2	-12.235000000	-21.138950177	7.775092760
	210	2	-10.196000000	-20.611218144	9.744615520
	211	2	-10.196000000	-23.108472936	8.302824793
	212	2	-8.157000000	-22.580740903	10.272347553
	213	2	-8.157000000	-21.138950177	7.775092760
	214	2	-6.117000000	-20.611218144	9.744615520
	215	2	-6.117000000	-23.108472936	8.302824793
	216	2	-4.078000000	-22.580740903	10.272347553
	217	2	-4.078000000	-21.138950177	7.775092760
	218	2	-2.039000000	-20.611218144	9.744615520
	219	2	-2.039000000	-23.108472936	8.302824793
	220	2	0.000000000	-22.580740903	10.272347553
	221	2	0.000000000	-21.138950177	7.775092760
	222	2	2.039000000	-20.611218144	9.744615520
	223	2	2.039000000	-23.108472936	8.302824793
	224	2	4.078000000	-22.580740903	10.272347553
	225	2	4.078000000	-21.138950177	7.775092760
	226	2	6.117000000	-20.611218144	9.744615520
	227	2	6.117000000	-23.108472936	8.302824793
	228	2	8.157000000	-22.580740903	10.272347553
	229	2	8.157000000	-21.138950177	7.775092760
	230	2	10.196000000	-20.611218144	9.744615520
	231	2	10.196000000	-23.108472936	8.302824793
	232	2	12.235000000	-22.580740903	10.272347553
	233	2	12.235000000	-21.138950177	7.775092760
	234	2	14.274000000	-20.611218144	9.744615520
	235	2	14.274000000	-23.108472936	8.302824793
	236	2	16.313000000	-22.580740903	10.272347553
	237	2	16.313000000	-21.138950177	7.775092760
	238	2	18.352000000	-20.611218144	9.744615520
	239	2	-18.352000000	-21.666682209	5.805570001
	240	2	-16.313000000	-23.636204969	6.333302034
	241	2	-16.313000000	-22.194414242	3.836047241
	242	2	-14.274000000	-21.666682209	5.805570001
	243	2	-14.274000000	-24.163937002	4.363779274
	244	2	-12.235000000	-23.636204969	6.333302034
	245	2	-12.235000000	-22.194414242	3.836047241
	246	2	-10.196000000	-21.666682209	5.805570001
	247	2	-10.196000000	-24.163937002	4.363779274
	248	2	-8.157000000	-23.636204969	6.333302034
	249	2	-8.157000000	-22.194414242	3.836047241
	250	2	-6.117000000	-21.666682209	5.805570001
	251	2	-6.117000000	-24.163937002	4.363779274
	252	2	-4.078000000	-23.636204969	6.333302034
	253	2	-4.078000000	-22.194414242	3.836047241
	254	2	-2.039000000	-21.666682209	5.805570001
	255	2	-2.039000000	-24.163937002	4.363779274
	256	2	0.000000000	-23.636204969	6.333302034
	257	2	0.000000000	-22.194414242	3.836047241
	258	2	2.039000000	-21.666682209	5.805570001
	259	2	2.039000000	-24.163937002	4.363779274
	260	2	4.078000000	-23.636204969	6.333302034
	261	2	4.078000000	-22.194414242	3.836047241
	262	2	6.117000000	-21.666682209	5.805570001
	263	2	6.117000000	-24.163937002	4.363779274
	264	2	8.157000000	-23.636204969	6.333302034
	265	2	8.157000000	-22.194414242	3.836047241
	266	2	10.196000000	-21.666682209	5.805570001
	267	2	10.196000000	-24.163937002	4.363779274
	268	2	12.235000000	-23.636204969	6.333302034
	269	2	12.235000000	-22.194414242	3.836047241
	270	2	14.274000000	-21.666682209	5.805570001
	271	2	14.274000000	-24.163937002	4.363779274
	272	2	16.313000000	-23.636204969	6.333302034
	273	2	16.313000000	-22.194414242	3.836047241
	274	2	18.352000000	-21.666682209	5.805570001
	275	2	-18.352000000	-22.722146275	1.866524481
	276	2	-16.313000000	-24.691669035	2.394256514
	277	2	-16.313000000	-23.249878308	-0.102998279
	278	2	-14.274000000	-22.722146275	1.866524481
	279	2	-14.274000000	-25.219401068	0.424733754
	280	2	-12.235000000	-24.691669035	2.394256514
	281	2	-12.235000000	-23.249878308	-0.102998279
	282	2	-10.196000000	-22.722146275	1.866524481
	283	2	-10.196000000	-25.219401068	0.424733754
	284	2	-8.157000000	-24.691669035	2.394256514
	285	2	-8.157000000	-23.249878308	-0.102998279
	286	2	-6.117000000	-22.722146275	1.866524481
	287	2	-6.117000000	-25.219401068	0.424733754
	288	2	-4.078000000	-24.691669035	2.394256514
	289	2	-4.078000000	-23.249878308	-0.102998279
	290	2	-2.039000000	-22.722146275	1.866524481
	291	2	-2.039000000	-25.219401068	0.424733754
	292	2	0.000000000	-24.691669035	2.394256514
	293	2	0.000000000	-23.249878308	-0.102998279
	294	2	2.039000000	-22.722146275	1.866524481
	295	2	2.039000000	-25.219401068	0.424733754
	296	2	4.078000000	-24.691669035	2.394256514
	297	2	4.078000000	-23.249878308	-0.102998279
	298	2	6.117000000	-22.722146275	1.866524481
	299	2	6.117000000	-25.219401068	0.424733754
	300	2	8.157000000	-24.691669035	2.394256514
	301	2	8.157000000	-23.249878308	-0.102998279
	302	2	10.196000000	-22.722146275	1.866524481
	303	2	10.196000000	-25.219401068	0.424733754
	304	2	12.235000000	-24.691669035	2.394256514
	305	2	12.235000000	-23.249878308	-0.102998279
	306	2	14.274000000	-22.722146275	1.866524481
	307	2	14.274000000	-25.219401068	0.424733754
	308	2	16.313000000	-24.691669035	2.394256514
	309	2	16.313000000	-23.249878308	-0.102998279
	310	2	18.352000000	-22.722146275	1.866524481
	311	2	-16.313000000	-24.305601193	-4.043009724
	312	2	-14.274000000	-23.777869160	-2.073486964
	313	2	-12.235000000	-25.747391920	-1.545754931
	314	2	-12.235000000	-24.305601193	-4.043009724
	315	2	-10.196000000	-23.777869160	-2.073486964
	316	2	-10.196000000	-26.275123953	-3.515277691
	317	2	-8.157000000	-25.747391920	-1.545754931
	318	2	-8.157000000	-24.305601193	-4.043009724
	319	2	-6.117000000	-23.777869160	-2.073486964
	320	2	-6.117000000	-26.275123953	-3.515277691
	321	2	-4.078000000	-25.747391920	-1.545754931
	322	2	-4.078000000	-24.305601193	-4.043009724
	323	2	-2.039000000	-23.777869160	-2.073486964
	324	2	-2.039000000	-26.275123953	-3.515277691
	325	2	0.000000000	-25.747391920	-1.545754931
	326	2	0.000000000	-24.305601193	-4.043009724
	327	2	2.039000000	-23.777869160	-2.073486964
	328	2	2.039000000	-26.275123953	-3.515277691
	329	2	4.078000000	-25.747391920	-1.545754931
	330	2	4.078000000	-24.305601193	-4.043009724
	331	2	6.117000000	-23.777869160	-2.073486964
	332	2	6.117000000	-26.275123953	-3.515277691
	333	2	8.157000000	-25.747391920	-1.545754931
	334	2	8.157000000	-24.305601193	-4.043009724
	335	2	10.196000000	-23.777869160	-2.073486964
	336	2	10.196000000	-26.275123953	-3.515277691
	337	2	12.235000000	-25.747391920	-1.545754931
	338	2	12.235000000	-24.305601193	-4.043009724
	339	2	14.274000000	-23.777869160	-2.073486964
	340	2	16.313000000	-24.305601193	-4.043009724
	341	2	-14.274000000	-24.833333226	-6.012532484
	342	2	-12.235000000	-26.802855986	-5.484800451
	343	2	-12.235000000	-25.361065259	-7.982055244
	344	2	-10.196000000	-24.833333226	-6.012532484
	345	2	-8.157000000	-26.802855986	-5.484800451
	346	2	-8.157000000	-25.361065259	-7.982055244
	347	2	-6.117000000	-24.833333226	-6.012532484
	348	2	-6.117000000	-27.330588019	-7.454323211
	349	2	-4.078000000	-26.802855986	-5.484800451
	350	2	-4.078000000	-25.361065259	-7.982055244
	351	2	-2.039000000	-24.833333226	-6.012532484
	352	2	-2.039000000	-27.330588019	-7.454323211
	353	2	0.000000000	-26.802855986	-5.484800451
	354	2	0.000000000	-25.361065259	-7.982055244
	355	2	2.039000000	-24.833333226	-6.012532484
	356	2	2.039000000	-27.330588019	-7.454323211
	357	1	4.078000000	-26.802855986	-5.484800451
	358	2	4.078000000	-25.361065259	-7.982055244
	359	2	6.117000000	-24.833333226	-6.012532484
	360	2	6.117000000	-27.330588019	-7.454323211
	361	2	8.157000000	-26.802855986	-5.484800451
	362	2	8.157000000	-25.361065259	-7.982055244
	363	2	10.196000000	-24.833333226	-6.012532484
	364	2	12.235000000	-26.802855986	-5.484800451
	365	2	12.235000000	-25.361065259	-7.982055244
	366	2	14.274000000	-24.833333226	-6.012532484
	367	2	-10.196000000	-25.888797292	-9.951578004
	368	2	-6.117000000	-25.888797292	-9.951578004
	369	2	-4.078000000	-27.858320052	-9.423845971
	370	2	-4.078000000	-26.416529325	-11.921100763
	371	2	-2.039000000	-25.888797292	-9.951578004
	372	2	0.000000000	-27.858320052	-9.423845971
	373	2	0.000000000	-26.416529325	-11.921100763
	374	2	2.039000000	-25.888797292	-9.951578004
	375	2	4.078000000	-27.858320052	-9.423845971
	376	2	4.078000000	-26.416529325	-11.921100763
	377	2	6.117000000	-25.888797292	-9.951578004
	378	2	10.196000000	-25.888797292	-9.951578004
	379	2	-4.078000000	-11.921100763	26.416529325
	380	2	0.000000000	-11.921100763	26.416529325
	381	2	4.078000000	-11.921100763	26.416529325
	382	2	-12.235000000	-12.976823648	22.476517880
	383	2	-10.196000000	-12.449091615	24.446040640
	384	2	-10.196000000	-14.946346408	23.004249913
	385	2	-8.157000000	-14.418614375	24.973772673
	386	2	-8.157000000	-12.976823648	22.476517880
	387	2	-6.117000000	-12.449091615	24.446040640
	388	2	-6.117000000	-14.946346408	23.004249913
	389	2	-4.078000000	-14.418614375	24.973772673
	390	2	-4.078000000	-12.976823648	22.476517880
	391	2	-2.039000000	-12.449091615	24.446040640
	392	2	-2.039000000	-14.946346408	23.004249913
	393	2	0.000000000	-14.418614375	24.973772673
	394	2	0.000000000	-12.976823648	22.476517880
	395	2	2.039000000	-12.449091615	24.446040640
	396	2	2.039000000	-14.946346408	23.004249913
	397	2	4.078000000	-14.418614375	24.973772673
	398	2	4.078000000	-12.976823648	22.476517880
	399	2	6.117000000	-12.449091615	24.446040640
	400	2	6.117000000	-14.946346408	23.004249913
	401	2	8.157000000	-14.418614375	24.973772673
	402	2	8.157000000	-12.976823648	22.476517880
	403	2	10.196000000	-12.449091615	24.446040640
	404	2	10.196000000	-14.946346408	23.004249913
	405	2	12.235000000	-12.976823648	22.476517880
	406	2	-16.313000000	-14.032287714	18.537472360
	407	2	-14.274000000	-13.504555681	20.506995120
	408	2	-14.274000000	-16.001810474	19.065204393
	409	2	-12.235000000	-15.474078441	21.034727153
	410	2	-12.235000000	-14.032287714	18.537472360
	411	2	-10.196000000	-13.504555681	20.506995120
	412	2	-10.196000000	-16.001810474	19.065204393
	413	2	-8.157000000	-15.474078441	21.034727153
	414	2	-8.157000000	-14.032287714	18.537472360
	415	2	-6.117000000	-13.504555681	20.506995120
	416	2	-6.117000000	-16.001810474	19.065204393
	417	2	-4.078000000	-15.474078441	21.034727153
	418	2	-4.078000000	-14.032287714	18.537472360
	419	2	-2.039000000	-13.504555681	20.506995120
	420	2	-2.039000000	-16.001810474	19.065204393
	421	2	0.000000000	-15.474078441	21.034727153
	422	2	0.000000000	-14.032287714	18.537472360
	423	2	2.039000000	-13.504555681	20.506995120
	424	2	2.039000000	-16.001810474	19.065204393
	425	2	4.078000000	-15.474078441	21.034727153
	426	2	4.078000000	-14.032287714	18.537472360
	427	2	6.117000000	-13.504555681	20.506995120
	428	2	6.117000000	-16.001810474	19.065204393
	429	2	8.157000000	-15.474078441	21.034727153
	430	2	8.157000000	-14.032287714	18.537472360
	431	2	10.196000000	-13.504555681	20.506995120
	432	2	10.196000000	-16.001810474	19.065204393
	433	2	12.235000000	-15.474078441	21.034727153
	434	2	12.235000000	-14.032287714	18.537472360
	435	2	14.274000000	-13.504555681	20.506995120
	436	2	14.274000000	-16.001810474	19.065204393
	437	2	16.313000000	-14.032287714	18.537472360
	438	2	-20.391000000	-15.087751780	14.598426841
	439	2	-18.352000000	-14.560019747	16.567949600
	440	2	-18.352000000	-17.057274540	15.126158874
	441	2	-16.313000000	-16.529542507	17.095681633
	442	2	-16.313000000	-15.087751780	14.598426841
	443	2	-14.274000000	-14.560019747	16.567949600
	444	2	-14.274000000	-17.057274540	15.126158874
	445	2	-12.235000000	-16.529542507	17.095681633
	446	2	-12.235000000	-15.087751780	14.598426841
	447	2	-10.196000000	-14.560019747	16.567949600
	448	2	-10.196000000	-17.057274540	15.126158874
	449	2	-8.157000000	-16.529542507	17.095681633
	450	2	-8.157000000	-15.087751780	14.598426841
	451	2	-6.117000000	-14.560019747	16.567949600
	452	2	-6.117000000	-17.057274540	15.126158874
	453	2	-4.078000000	-16.529542507	17.095681633
	454	2	-4.078000000	-15.087751780	14.598426841
	455	2	-2.039000000	-14.560019747	16.567949600
	456	2	-2.039000000	-17.057274540	15.126158874
	457	2	0.000000000	-16.529542507	17.095681633
	458	2	0.000000000	-15.087751780	14.598426841
	459	2	2.039000000	-14.560019747	16.567949600
	460	2	2.039000000	-17.057274540	15.126158874
	461	2	4.078000000	-16.529542507	17.095681633
	462	2	4.078000000	-15.087751780	14.598426841
	463	2	6.117000000	-14.560019747	16.567949600
	464	2	6.117000000	-17.057274540	15.126158874
	465	2	8.157000000	-16.529542507	17.095681633
	466	2	8.157000000	-15.087751780	14.598426841
	467	2	10.196000000	-14.560019747	16.567949600
	468	2	10.196000000	-17.057274540	15.126158874
	469	2	12.235000000	-16.529542507	17.095681633
	470	2	12.235000000	-15.087751780	14.598426841
	471	2	14.274000000	-14.560019747	16.567949600
	472	2	14.274000000	-17.057274540	15.126158874
	473	2	16.313000000	-16.529542507	17.095681633
	474	2	16.313000000	-15.087751780	14.598426841
	475	2	18.352000000	-14.560019747	16.567949600
	476	2	18.352000000	-17.057274540	15.126158874
	477	2	20.391000000	-15.087751780	14.598426841
	478	2	-20.391000000	-17.585006573	13.156636114
	479	2	-20.391000000	-16.143474665	10.658415395
	480	2	-18.352000000	-15.615483813	12.628904081
	481	2	-18.352000000	-18.112997425	11.186147428
	482	2	-16.313000000	-17.585006573	13.156636114
	483	2	-16.313000000	-16.143474665	10.658415395
	484	2	-14.274000000	-15.615483813	12.628904081
	485	2	-14.274000000	-18.112997425	11.186147428
	486	2	-12.235000000	-17.585006573	13.156636114
	487	2	-12.235000000	-16.143474665	10.658415395
	488	2	-10.196000000	-15.615483813	12.628904081
	489	2	-10.196000000	-18.112997425	11.186147428
	490	2	-8.157000000	-17.585006573	13.156636114
	491	2	-8.157000000	-16.143474665	10.658415395
	492	2	-6.117000000	-15.615483813	12.628904081
	493	2	-6.117000000	-18.112997425	11.186147428
	494	2	-4.078000000	-17.585006573	13.156636114
	495	1	-4.078000000	-16.143474665	10.658415395
	496	2	-2.039000000	-15.615483813	12.628904081
	497	2	-2.039000000	-18.112997425	11.186147428
	498	2	0.000000000	-17.585006573	13.156636114
	499	2	0.000000000	-16.143474665	10.658415395
	500	2	2.039000000	-15.615483813	12.628904081
	501	2	2.039000000	-18.112997425	11.186147428
	502	2	4.078000000	-17.585006573	13.156636114
	503	2	4.078000000	-16.143474665	10.658415395
	504	2	6.117000000	-15.615483813	12.628904081
	505	2	6.117000000	-18.112997425	11.186147428
	506	2	8.157000000	-17.585006573	13.156636114
	507	2	8.157000000	-16.143474665	10.658415395
	508	2	10.196000000	-15.615483813	12.628904081
	509	2	10.196000000	-18.112997425	11.186147428
	510	2	12.235000000	-17.585006573	13.156636114
	511	2	12.235000000	-16.143474665	10.658415395
	512	2	14.274000000	-15.615483813	12.628904081
	513	2	14.274000000	-18.112997425	11.186147428
	514	2	16.313000000	-17.585006573	13.156636114
	515	2	16.313000000	-16.143474665	10.658415395
	516	2	18.352000000	-15.615483813	12.628904081
	517	2	18.352000000	-18.112997425	11.186147428
	518	2	20.391000000	-17.585006573	13.156636114
	519	2	20.391000000	-16.143474665	10.658415395
	520	2	-22.431000000	-16.671206698	8.688892635
	521	2	-20.391000000	-18.640729458	9.216624668
	522	2	-20.391000000	-17.198938731	6.719369876
	523	2	-18.352000000	-16.671206698	8.688892635
	524	2	-18.352000000	-19.168461491	7.247101908
	525	2	-16.313000000	-18.640729458	9.216624668
	526	2	-16.313000000	-17.198938731	6.719369876
	527	2	-14.274000000	-16.671206698	8.688892635
	528	2	-14.274000000	-19.168461491	7.247101908
	529	2	-12.235000000	-18.640729458	9.216624668
	530	2	-12.235000000	-17.198938731	6.719369876
	531	2	-10.196000000	-16.671206698	8.688892635
	532	2	-10.196000000	-19.168461491	7.247101908
	533	2	-8.157000000	-18.640729458	9.216624668
	534	2	-8.157000000	-17.198938731	6.719369876
	535	2	-6.117000000	-16.671206698	8.688892635
	536	2	-6.117000000	-19.168461491	7.247101908
	537	2	-4.078000000	-18.640729458	9.216624668
	538	2	-4.078000000	-17.198938731	6.719369876
	539	2	-2.039000000	-16.671206698	8.688892635
	540	2	-2.039000000	-19.168461491	7.247101908
	541	2	0.000000000	-18.640729458	9.216624668
	542	2	0.000000000	-17.198938731	6.719369876
	543	2	2.039000000	-16.671206698	8.688892635
	544	2	2.039000000	-19.168461491	7.247101908
	545	2	4.078000000	-18.640729458	9.216624668
	546	2	4.078000000	-17.198938731	6.719369876
	547	2	6.117000000	-16.671206698	8.688892635
	548	2	6.117000000	-19.168461491	7.247101908
	549	2	8.157000000	-18.640729458	9.216624668
	550	2	8.157000000	-17.198938731	6.719369876
	551	2	10.196000000	-16.671206698	8.688892635
	552	2	10.196000000	-19.168461491	7.247101908
	553	2	12.235000000	-18.640729458	9.216624668
	554	2	12.235000000	-17.198938731	6.719369876
	555	2	14.274000000	-16.671206698	8.688892635
	556	2	14.274000000	-19.168461491	7.247101908
	557	2	16.313000000	-18.640729458	9.216624668
	558	2	16.313000000	-17.198938731	6.719369876
	559	2	18.352000000	-16.671206698	8.688892635
	560	2	18.352000000	-19.168461491	7.247101908
	561	2	20.391000000	-18.640729458	9.216624668
	562	2	20.391000000	-17.198938731	6.719369876
	563	2	22.431000000	-16.671206698	8.688892635
	564	2	-22.431000000	-17.726670764	4.749847116
	565	2	-20.391000000	-19.696193524	5.277579149
	566	2	-20.391000000	-18.254402797	2.780324356
	567	2	-18.352000000	-17.726670764	4.749847116
	568	2	-18.352000000	-20.223925557	3.308056389
	569	2	-16.313000000	-19.696193524	5.277579149
	570	2	-16.313000000	-18.254402797	2.780324356
	571	2	-14.274000000	-17.726670764	4.749847116
	572	2	-14.274000000	-20.223925557	3.308056389
	573	2	-12.235000000	-19.696193524	5.277579149
	574	2	-12.235000000	-18.254402797	2.780324356
	575	2	-10.196000000	-17.726670764	4.749847116
	576	2	-10.196000000	-20.223925557	3.308056389
	577	2	-8.157000000	-19.696193524	5.277579149
	578	2	-8.157000000	-18.254402797	2.780324356
	579	1	-6.117000000	-17.726670764	4.749847116
	580	2	-6.117000000	-20.223925557	3.308056389
	581	2	-4.078000000	-19.696193524	5.277579149
	582	1	-4.078000000	-18.254402797	2.780324356
	583	2	-2.039000000	-17.726670764	4.749847116
	584	2	-2.039000000	-20.223925557	3.308056389
	585	2	0.000000000	-19.696193524	5.277579149
	586	2	0.000000000	-18.254402797	2.780324356
	587	2	2.039000000	-17.726670764	4.749847116
	588	2	2.039000000	-20.223925557	3.308056389
	589	1	4.078000000	-19.696193524	5.277579149
	590	2	4.078000000	-18.254402797	2.780324356
	591	2	6.117000000	-17.726670764	4.749847116
	592	2	6.117000000	-20.223925557	3.308056389
	593	2	8.157000000	-19.696193524	5.277579149
	594	2	8.157000000	-18.254402797	2.780324356
	595	2	10.196000000	-17.726670764	4.749847116
	596	2	10.196000000	-20.223925557	3.308056389
	597	2	12.235000000	-19.696193524	5.277579149
	598	2	12.235000000	-18.254402797	2.780324356
	599	2	14.274000000	-17.726670764	4.749847116
	600	2	14.274000000	-20.223925557	3.308056389
	601	2	16.313000000	-19.696193524	5.277579149
	602	2	16.313000000	-18.254402797	2.780324356
	603	2	18.352000000	-17.726670764	4.749847116
	604	2	18.352000000	-20.223925557	3.308056389
	605	2	20.391000000	-19.696193524	5.277579149
	606	2	20.391000000	-18.254402797	2.780324356
	607	2	22.431000000	-17.726670764	4.749847116
	608	2	-22.431000000	-18.782134830	0.810801596
	609	2	-20.391000000	-20.751657590	1.338533629
	610	2	-20.391000000	-19.309866863	-1.158721164
	611	2	-18.352000000	-18.782134830	0.810801596
	612	2	-18.352000000	-21.279389623	-0.630989131
	613	2	-16.313000000	-20.751657590	1.338533629
	614	2	-16.313000000	-19.309866863	-1.158721164
	615	2	-14.274000000	-18.782134830	0.810801596
	616	2	-14.274000000	-21.279389623	-0.630989131
	617	2	-12.235000000	-20.751657590	1.338533629
	618	2	-12.235000000	-19.309866863	-1.158721164
	619	2	-10.196000000	-18.782134830	0.810801596
	620	2	-10.196000000	-21.279389623	-0.630989131
	621	2	-8.157000000	-20.751657590	1.338533629
	622	1	-8.157000000	-19.309866863	-1.158721164
	623	2	-6.117000000	-18.782134830	0.810801596
	624	1	-6.117000000	-21.279389623	-0.630989131
	625	2	-4.078000000	-20.751657590	1.338533629
	626	2	-4.078000000	-19.309866863	-1.158721164
	627	1	-2.039000000	-18.782134830	0.810801596
	628	2	-2.039000000	-21.279389623	-0.630989131
	629	2	0.000000000	-20.751657590	1.338533629
	630	2	0.000000000	-19.309866863	-1.158721164
	631	2	2.039000000	-18.782134830	0.810801596
	632	2	2.039000000	-21.279389623	-0.630989131
	633	2	4.078000000	-20.751657590	1.338533629
	634	2	4.078000000	-19.309866863	-1.158721164
	635	1	6.117000000	-18.782134830	0.810801596
	636	2	6.117000000	-21.279389623	-0.630989131
	637	2	8.157000000	-20.751657590	1.338533629
	638	2	8.157000000	-19.309866863	-1.158721164
	639	2	10.196000000	-18.782134830	0.810801596
	640	2	10.196000000	-21.279389623	-0.630989131
	641	2	12.235000000	-20.751657590	1.338533629
	642	2	12.235000000	-19.309866863	-1.158721164
	643	2	14.274000000	-18.782134830	0.810801596