
        6699 atoms 
           2 atom types 
  -60.0000000       60.000000     xlo xhi 
  -60.0000000       60.000000     ylo yhi 
  -60.0000000       60.000000     zlo zhi 
 Atoms 

	1	1	0.000000000	0.000000000	0.000000000
	2	1	0.000000000	2.497254793	-1.441790727
	3	1	2.039000000	1.969522760	0.527732033
	4	1	2.039000000	0.527732033	-1.969522760
	5	2	-8.157000000	-28.244646713	2.987545658
	6	2	-6.117000000	-28.772378746	4.957068418
	7	2	-4.078000000	-28.244646713	2.987545658
	8	2	-2.039000000	-28.772378746	4.957068418
	9	2	0.000000000	-28.244646713	2.987545658
	10	2	2.039000000	-28.772378746	4.957068418
	11	2	4.078000000	-28.244646713	2.987545658
	12	2	6.117000000	-28.772378746	4.957068418
	13	2	8.157000000	-28.244646713	2.987545658
	14	2	-12.235000000	-27.188923828	-0.952465787
	15	2	-10.196000000	-27.716914680	1.018022898
	16	2	-8.157000000	-27.188923828	-0.952465787
	17	2	-6.117000000	-27.716914680	1.018022898
	18	2	-6.117000000	-29.158446588	-1.480197820
	19	2	-4.078000000	-29.686437440	0.490290865
	20	2	-4.078000000	-27.188923828	-0.952465787
	21	2	-2.039000000	-27.716914680	1.018022898
	22	2	-2.039000000	-29.158446588	-1.480197820
	23	2	0.000000000	-29.686437440	0.490290865
	24	2	0.000000000	-27.188923828	-0.952465787
	25	2	2.039000000	-27.716914680	1.018022898
	26	2	2.039000000	-29.158446588	-1.480197820
	27	2	4.078000000	-29.686437440	0.490290865
	28	2	4.078000000	-27.188923828	-0.952465787
	29	2	6.117000000	-27.716914680	1.018022898
	30	2	6.117000000	-29.158446588	-1.480197820
	31	2	8.157000000	-27.188923828	-0.952465787
	32	2	10.196000000	-27.716914680	1.018022898
	33	2	12.235000000	-27.188923828	-0.952465787
	34	2	-12.235000000	-26.133459762	-4.891511307
	35	2	-10.196000000	-26.661191795	-2.921988547
	36	2	-8.157000000	-28.630714555	-3.449720580
	37	2	-8.157000000	-26.133459762	-4.891511307
	38	2	-6.117000000	-26.661191795	-2.921988547
	39	2	-6.117000000	-28.102982522	-5.419243340
	40	2	-4.078000000	-28.630714555	-3.449720580
	41	2	-4.078000000	-26.133459762	-4.891511307
	42	2	-2.039000000	-26.661191795	-2.921988547
	43	2	-2.039000000	-28.102982522	-5.419243340
	44	2	0.000000000	-28.630714555	-3.449720580
	45	2	0.000000000	-26.133459762	-4.891511307
	46	2	2.039000000	-26.661191795	-2.921988547
	47	2	2.039000000	-28.102982522	-5.419243340
	48	2	4.078000000	-28.630714555	-3.449720580
	49	2	4.078000000	-26.133459762	-4.891511307
	50	2	6.117000000	-26.661191795	-2.921988547
	51	2	6.117000000	-28.102982522	-5.419243340
	52	2	8.157000000	-28.630714555	-3.449720580
	53	2	8.157000000	-26.133459762	-4.891511307
	54	2	10.196000000	-26.661191795	-2.921988547
	55	2	12.235000000	-26.133459762	-4.891511307
	56	2	-12.235000000	-25.077995696	-8.830556826
	57	2	-10.196000000	-25.605727729	-6.861034067
	58	2	-8.157000000	-27.575250489	-7.388766100
	59	2	-8.157000000	-25.077995696	-8.830556826
	60	2	-6.117000000	-25.605727729	-6.861034067
	61	2	-6.117000000	-27.047518456	-9.358288859
	62	2	-4.078000000	-27.575250489	-7.388766100
	63	2	-4.078000000	-25.077995696	-8.830556826
	64	2	-2.039000000	-25.605727729	-6.861034067
	65	2	-2.039000000	-27.047518456	-9.358288859
	66	2	0.000000000	-27.575250489	-7.388766100
	67	2	0.000000000	-25.077995696	-8.830556826
	68	2	2.039000000	-25.605727729	-6.861034067
	69	2	2.039000000	-27.047518456	-9.358288859
	70	2	4.078000000	-27.575250489	-7.388766100
	71	2	4.078000000	-25.077995696	-8.830556826
	72	2	6.117000000	-25.605727729	-6.861034067
	73	2	6.117000000	-27.047518456	-9.358288859
	74	2	8.157000000	-27.575250489	-7.388766100
	75	2	8.157000000	-25.077995696	-8.830556826
	76	2	10.196000000	-25.605727729	-6.861034067
	77	2	12.235000000	-25.077995696	-8.830556826
	78	2	-12.235000000	-24.022531630	-12.769602346
	79	2	-10.196000000	-24.550263663	-10.800079586
	80	2	-8.157000000	-26.519786423	-11.327811619
	81	2	-8.157000000	-24.022531630	-12.769602346
	82	2	-6.117000000	-24.550263663	-10.800079586
	83	2	-6.117000000	-25.992054390	-13.297334379
	84	2	-4.078000000	-26.519786423	-11.327811619
	85	2	-4.078000000	-24.022531630	-12.769602346
	86	2	-2.039000000	-24.550263663	-10.800079586
	87	2	-2.039000000	-25.992054390	-13.297334379
	88	2	0.000000000	-26.519786423	-11.327811619
	89	2	0.000000000	-24.022531630	-12.769602346
	90	2	2.039000000	-24.550263663	-10.800079586
	91	2	2.039000000	-25.992054390	-13.297334379
	92	2	4.078000000	-26.519786423	-11.327811619
	93	2	4.078000000	-24.022531630	-12.769602346
	94	2	6.117000000	-24.550263663	-10.800079586
	95	2	6.117000000	-25.992054390	-13.297334379
	96	2	8.157000000	-26.519786423	-11.327811619
	97	2	8.157000000	-24.022531630	-12.769602346
	98	2	10.196000000	-24.550263663	-10.800079586
	99	2	12.235000000	-24.022531630	-12.769602346
	100	2	-10.196000000	-23.494540778	-14.740091032
	101	2	-8.157000000	-22.966808745	-16.709613791
	102	2	-6.117000000	-23.494540778	-14.740091032
	103	2	-4.078000000	-25.464063538	-15.267823065
	104	2	-4.078000000	-22.966808745	-16.709613791
	105	2	-2.039000000	-23.494540778	-14.740091032
	106	2	0.000000000	-25.464063538	-15.267823065
	107	2	0.000000000	-22.966808745	-16.709613791
	108	2	2.039000000	-23.494540778	-14.740091032
	109	2	4.078000000	-25.464063538	-15.267823065
	110	2	4.078000000	-22.966808745	-16.709613791
	111	2	6.117000000	-23.494540778	-14.740091032
	112	2	8.157000000	-22.966808745	-16.709613791
	113	2	10.196000000	-23.494540778	-14.740091032
	114	2	-6.117000000	-22.439076712	-18.679136551
	115	2	-2.039000000	-22.439076712	-18.679136551
	116	2	2.039000000	-22.439076712	-18.679136551
	117	2	6.117000000	-22.439076712	-18.679136551
	118	2	-4.078000000	-26.416529325	11.921100763
	119	2	0.000000000	-26.416529325	11.921100763
	120	2	4.078000000	-26.416529325	11.921100763
	121	2	-12.235000000	-25.361065259	7.982055244
	122	2	-10.196000000	-25.888797292	9.951578004
	123	2	-8.157000000	-25.361065259	7.982055244
	124	2	-6.117000000	-25.888797292	9.951578004
	125	2	-6.117000000	-27.330588019	7.454323211
	126	2	-4.078000000	-27.858320052	9.423845971
	127	2	-4.078000000	-25.361065259	7.982055244
	128	2	-2.039000000	-25.888797292	9.951578004
	129	2	-2.039000000	-27.330588019	7.454323211
	130	2	0.000000000	-27.858320052	9.423845971
	131	2	0.000000000	-25.361065259	7.982055244
	132	2	2.039000000	-25.888797292	9.951578004
	133	2	2.039000000	-27.330588019	7.454323211
	134	2	4.078000000	-27.858320052	9.423845971
	135	2	4.078000000	-25.361065259	7.982055244
	136	2	6.117000000	-25.888797292	9.951578004
	137	2	6.117000000	-27.330588019	7.454323211
	138	2	8.157000000	-25.361065259	7.982055244
	139	2	10.196000000	-25.888797292	9.951578004
	140	2	12.235000000	-25.361065259	7.982055244
	141	2	-16.313000000	-24.305601193	4.043009724
	142	2	-14.274000000	-24.833333226	6.012532484
	143	2	-12.235000000	-26.802855986	5.484800451
	144	2	-12.235000000	-24.305601193	4.043009724
	145	2	-10.196000000	-24.833333226	6.012532484
	146	2	-10.196000000	-26.275123953	3.515277691
	147	2	-8.157000000	-26.802855986	5.484800451
	148	2	-8.157000000	-24.305601193	4.043009724
	149	2	-6.117000000	-24.833333226	6.012532484
	150	2	-6.117000000	-26.275123953	3.515277691
	151	2	-4.078000000	-26.802855986	5.484800451
	152	2	-4.078000000	-24.305601193	4.043009724
	153	2	-2.039000000	-24.833333226	6.012532484
	154	2	-2.039000000	-26.275123953	3.515277691
	155	2	0.000000000	-26.802855986	5.484800451
	156	2	0.000000000	-24.305601193	4.043009724
	157	2	2.039000000	-24.833333226	6.012532484
	158	2	2.039000000	-26.275123953	3.515277691
	159	2	4.078000000	-26.802855986	5.484800451
	160	2	4.078000000	-24.305601193	4.043009724
	161	2	6.117000000	-24.833333226	6.012532484
	162	2	6.117000000	-26.275123953	3.515277691
	163	2	8.157000000	-26.802855986	5.484800451
	164	2	8.157000000	-24.305601193	4.043009724
	165	2	10.196000000	-24.833333226	6.012532484
	166	2	10.196000000	-26.275123953	3.515277691
	167	2	12.235000000	-26.802855986	5.484800451
	168	2	12.235000000	-24.305601193	4.043009724
	169	2	14.274000000	-24.833333226	6.012532484
	170	2	16.313000000	-24.305601193	4.043009724
	171	2	-16.313000000	-23.249878308	0.102998279
	172	2	-14.274000000	-23.777869160	2.073486964
	173	2	-14.274000000	-25.219401068	-0.424733754
	174	2	-12.235000000	-25.747391920	1.545754931
	175	2	-12.235000000	-23.249878308	0.102998279
	176	2	-10.196000000	-23.777869160	2.073486964
	177	2	-10.196000000	-25.219401068	-0.424733754
	178	2	-8.157000000	-25.747391920	1.545754931
	179	2	-8.157000000	-23.249878308	0.102998279
	180	2	-6.117000000	-23.777869160	2.073486964
	181	2	-6.117000000	-25.219401068	-0.424733754
	182	2	-4.078000000	-25.747391920	1.545754931
	183	2	-4.078000000	-23.249878308	0.102998279
	184	2	-2.039000000	-23.777869160	2.073486964
	185	2	-2.039000000	-25.219401068	-0.424733754
	186	2	0.000000000	-25.747391920	1.545754931
	187	2	0.000000000	-23.249878308	0.102998279
	188	2	2.039000000	-23.777869160	2.073486964
	189	2	2.039000000	-25.219401068	-0.424733754
	190	2	4.078000000	-25.747391920	1.545754931
	191	2	4.078000000	-23.249878308	0.102998279
	192	2	6.117000000	-23.777869160	2.073486964
	193	2	6.117000000	-25.219401068	-0.424733754
	194	2	8.157000000	-25.747391920	1.545754931
	195	2	8.157000000	-23.249878308	0.102998279
	196	2	10.196000000	-23.777869160	2.073486964
	197	2	10.196000000	-25.219401068	-0.424733754
	198	2	12.235000000	-25.747391920	1.545754931
	199	2	12.235000000	-23.249878308	0.102998279
	200	2	14.274000000	-23.777869160	2.073486964
	201	2	14.274000000	-25.219401068	-0.424733754
	202	2	16.313000000	-23.249878308	0.102998279
	203	2	-18.352000000	-22.722146275	-1.866524481
	204	2	-16.313000000	-24.691669035	-2.394256514
	205	2	-16.313000000	-22.194414242	-3.836047241
	206	2	-14.274000000	-22.722146275	-1.866524481
	207	2	-14.274000000	-24.163937002	-4.363779274
	208	2	-12.235000000	-24.691669035	-2.394256514
	209	2	-12.235000000	-22.194414242	-3.836047241
	210	2	-10.196000000	-22.722146275	-1.866524481
	211	2	-10.196000000	-24.163937002	-4.363779274
	212	2	-8.157000000	-24.691669035	-2.394256514
	213	2	-8.157000000	-22.194414242	-3.836047241
	214	2	-6.117000000	-22.722146275	-1.866524481
	215	2	-6.117000000	-24.163937002	-4.363779274
	216	2	-4.078000000	-24.691669035	-2.394256514
	217	2	-4.078000000	-22.194414242	-3.836047241
	218	2	-2.039000000	-22.722146275	-1.866524481
	219	2	-2.039000000	-24.163937002	-4.363779274
	220	2	0.000000000	-24.691669035	-2.394256514
	221	2	0.000000000	-22.194414242	-3.836047241
	222	2	2.039000000	-22.722146275	-1.866524481
	223	2	2.039000000	-24.163937002	-4.363779274
	224	2	4.078000000	-24.691669035	-2.394256514
	225	2	4.078000000	-22.194414242	-3.836047241
	226	2	6.117000000	-22.722146275	-1.866524481
	227	2	6.117000000	-24.163937002	-4.363779274
	228	2	8.157000000	-24.691669035	-2.394256514
	229	2	8.157000000	-22.194414242	-3.836047241
	230	2	10.196000000	-22.722146275	-1.866524481
	231	2	10.196000000	-24.163937002	-4.363779274
	232	2	12.235000000	-24.691669035	-2.394256514
	233	2	12.235000000	-22.194414242	-3.836047241
	234	2	14.274000000	-22.722146275	-1.866524481
	235	2	14.274000000	-24.163937002	-4.363779274
	236	2	16.313000000	-24.691669035	-2.394256514
	237	2	16.313000000	-22.194414242	-3.836047241
	238	2	18.352000000	-22.722146275	-1.866524481
	239	2	-18.352000000	-21.666682209	-5.805570001
	240	2	-16.313000000	-23.636204969	-6.333302034
	241	2	-16.313000000	-21.138950177	-7.775092760
	242	2	-14.274000000	-21.666682209	-5.805570001
	243	2	-14.274000000	-23.108472936	-8.302824793
	244	2	-12.235000000	-23.636204969	-6.333302034
	245	2	-12.235000000	-21.138950177	-7.775092760
	246	2	-10.196000000	-21.666682209	-5.805570001
	247	2	-10.196000000	-23.108472936	-8.302824793
	248	2	-8.157000000	-23.636204969	-6.333302034
	249	2	-8.157000000	-21.138950177	-7.775092760
	250	2	-6.117000000	-21.666682209	-5.805570001
	251	2	-6.117000000	-23.108472936	-8.302824793
	252	2	-4.078000000	-23.636204969	-6.333302034
	253	2	-4.078000000	-21.138950177	-7.775092760
	254	2	-2.039000000	-21.666682209	-5.805570001
	255	2	-2.039000000	-23.108472936	-8.302824793
	256	2	0.000000000	-23.636204969	-6.333302034
	257	2	0.000000000	-21.138950177	-7.775092760
	258	2	2.039000000	-21.666682209	-5.805570001
	259	2	2.039000000	-23.108472936	-8.302824793
	260	2	4.078000000	-23.636204969	-6.333302034
	261	2	4.078000000	-21.138950177	-7.775092760
	262	2	6.117000000	-21.666682209	-5.805570001
	263	2	6.117000000	-23.108472936	-8.302824793
	264	2	8.157000000	-23.636204969	-6.333302034
	265	2	8.157000000	-21.138950177	-7.775092760
	266	2	10.196000000	-21.666682209	-5.805570001
	267	2	10.196000000	-23.108472936	-8.302824793
	268	2	12.235000000	-23.636204969	-6.333302034
	269	2	12.235000000	-21.138950177	-7.775092760
	270	2	14.274000000	-21.666682209	-5.805570001
	271	2	14.274000000	-23.108472936	-8.302824793
	272	2	16.313000000	-23.636204969	-6.333302034
	273	2	16.313000000	-21.138950177	-7.775092760
	274	2	18.352000000	-21.666682209	-5.805570001
	275	2	-18.352000000	-20.611218144	-9.744615520
	276	2	-16.313000000	-22.580740903	-10.272347553
	277	2	-16.313000000	-20.083486111	-11.714138280
	278	2	-14.274000000	-20.611218144	-9.744615520
	279	2	-14.274000000	-22.053008870	-12.241870313
	280	2	-12.235000000	-22.580740903	-10.272347553
	281	2	-12.235000000	-20.083486111	-11.714138280
	282	2	-10.196000000	-20.611218144	-9.744615520
	283	2	-10.196000000	-22.053008870	-12.241870313
	284	2	-8.157000000	-22.580740903	-10.272347553
	285	2	-8.157000000	-20.083486111	-11.714138280
	286	2	-6.117000000	-20.611218144	-9.744615520
	287	2	-6.117000000	-22.053008870	-12.241870313
	288	2	-4.078000000	-22.580740903	-10.272347553
	289	2	-4.078000000	-20.083486111	-11.714138280
	290	2	-2.039000000	-20.611218144	-9.744615520
	291	2	-2.039000000	-22.053008870	-12.241870313
	292	2	0.000000000	-22.580740903	-10.272347553
	293	2	0.000000000	-20.083486111	-11.714138280
	294	2	2.039000000	-20.611218144	-9.744615520
	295	2	2.039000000	-22.053008870	-12.241870313
	296	2	4.078000000	-22.580740903	-10.272347553
	297	2	4.078000000	-20.083486111	-11.714138280
	298	2	6.117000000	-20.611218144	-9.744615520
	299	2	6.117000000	-22.053008870	-12.241870313
	300	2	8.157000000	-22.580740903	-10.272347553
	301	2	8.157000000	-20.083486111	-11.714138280
	302	2	10.196000000	-20.611218144	-9.744615520
	303	2	10.196000000	-22.053008870	-12.241870313
	304	2	12.235000000	-22.580740903	-10.272347553
	305	2	12.235000000	-20.083486111	-11.714138280
	306	2	14.274000000	-20.611218144	-9.744615520
	307	2	14.274000000	-22.053008870	-12.241870313
	308	2	16.313000000	-22.580740903	-10.272347553
	309	2	16.313000000	-20.083486111	-11.714138280
	310	2	18.352000000	-20.611218144	-9.744615520
	311	2	-16.313000000	-19.027763226	-15.654149726
	312	2	-14.274000000	-19.555495259	-13.684626966
	313	2	-12.235000000	-21.525018018	-14.212358999
	314	2	-12.235000000	-19.027763226	-15.654149726
	315	2	-10.196000000	-19.555495259	-13.684626966
	316	2	-10.196000000	-20.997285985	-16.181881759
	317	2	-8.157000000	-21.525018018	-14.212358999
	318	2	-8.157000000	-19.027763226	-15.654149726
	319	2	-6.117000000	-19.555495259	-13.684626966
	320	2	-6.117000000	-20.997285985	-16.181881759
	321	2	-4.078000000	-21.525018018	-14.212358999
	322	2	-4.078000000	-19.027763226	-15.654149726
	323	2	-2.039000000	-19.555495259	-13.684626966
	324	2	-2.039000000	-20.997285985	-16.181881759
	325	2	0.000000000	-21.525018018	-14.212358999
	326	2	0.000000000	-19.027763226	-15.654149726
	327	2	2.039000000	-19.555495259	-13.684626966
	328	2	2.039000000	-20.997285985	-16.181881759
	329	2	4.078000000	-21.525018018	-14.212358999
	330	2	4.078000000	-19.027763226	-15.654149726
	331	2	6.117000000	-19.555495259	-13.684626966
	332	2	6.117000000	-20.997285985	-16.181881759
	333	2	8.157000000	-21.525018018	-14.212358999
	334	2	8.157000000	-19.027763226	-15.654149726
	335	2	10.196000000	-19.555495259	-13.684626966
	336	2	10.196000000	-20.997285985	-16.181881759
	337	2	12.235000000	-21.525018018	-14.212358999
	338	2	12.235000000	-19.027763226	-15.654149726
	339	2	14.274000000	-19.555495259	-13.684626966
	340	2	16.313000000	-19.027763226	-15.654149726
	341	2	-14.274000000	-18.500031193	-17.623672485
	342	2	-12.235000000	-20.469553952	-18.151404518
	343	2	-12.235000000	-17.972299160	-19.593195245
	344	2	-10.196000000	-18.500031193	-17.623672485
	345	2	-8.157000000	-20.469553952	-18.151404518
	346	2	-8.157000000	-17.972299160	-19.593195245
	347	2	-6.117000000	-18.500031193	-17.623672485
	348	2	-6.117000000	-19.941821920	-20.120927278
	349	2	-4.078000000	-20.469553952	-18.151404518
	350	2	-4.078000000	-17.972299160	-19.593195245
	351	2	-2.039000000	-18.500031193	-17.623672485
	352	2	-2.039000000	-19.941821920	-20.120927278
	353	2	0.000000000	-20.469553952	-18.151404518
	354	2	0.000000000	-17.972299160	-19.593195245
	355	2	2.039000000	-18.500031193	-17.623672485
	356	2	2.039000000	-19.941821920	-20.120927278
	357	1	4.078000000	-20.469553952	-18.151404518
	358	2	4.078000000	-17.972299160	-19.593195245
	359	2	6.117000000	-18.500031193	-17.623672485
	360	2	6.117000000	-19.941821920	-20.120927278
	361	2	8.157000000	-20.469553952	-18.151404518
	362	2	8.157000000	-17.972299160	-19.593195245
	363	2	10.196000000	-18.500031193	-17.623672485
	364	2	12.235000000	-20.469553952	-18.151404518
	365	2	12.235000000	-17.972299160	-19.593195245
	366	2	14.274000000	-18.500031193	-17.623672485
	367	2	-10.196000000	-17.444567127	-21.562718005
	368	2	-6.117000000	-17.444567127	-21.562718005
	369	2	-4.078000000	-19.414089887	-22.090450038
	370	2	-4.078000000	-16.916835094	-23.532240765
	371	2	-2.039000000	-17.444567127	-21.562718005
	372	2	0.000000000	-19.414089887	-22.090450038
	373	2	0.000000000	-16.916835094	-23.532240765
	374	2	2.039000000	-17.444567127	-21.562718005
	375	2	4.078000000	-19.414089887	-22.090450038
	376	2	4.078000000	-16.916835094	-23.532240765
	377	2	6.117000000	-17.444567127	-21.562718005
	378	2	10.196000000	-17.444567127	-21.562718005
	379	2	-4.078000000	-23.532240765	16.916835094
	380	2	0.000000000	-23.532240765	16.916835094
	381	2	4.078000000	-23.532240765	16.916835094
	382	2	-12.235000000	-22.476517880	12.976823648
	383	2	-10.196000000	-23.004249913	14.946346408
	384	2	-10.196000000	-24.446040640	12.449091615
	385	2	-8.157000000	-24.973772673	14.418614375
	386	2	-8.157000000	-22.476517880	12.976823648
	387	2	-6.117000000	-23.004249913	14.946346408
	388	2	-6.117000000	-24.446040640	12.449091615
	389	2	-4.078000000	-24.973772673	14.418614375
	390	2	-4.078000000	-22.476517880	12.976823648
	391	2	-2.039000000	-23.004249913	14.946346408
	392	2	-2.039000000	-24.446040640	12.449091615
	393	2	0.000000000	-24.973772673	14.418614375
	394	2	0.000000000	-22.476517880	12.976823648
	395	2	2.039000000	-23.004249913	14.946346408
	396	2	2.039000000	-24.446040640	12.449091615
	397	2	4.078000000	-24.973772673	14.418614375
	398	2	4.078000000	-22.476517880	12.976823648
	399	2	6.117000000	-23.004249913	14.946346408
	400	2	6.117000000	-24.446040640	12.449091615
	401	2	8.157000000	-24.973772673	14.418614375
	402	2	8.157000000	-22.476517880	12.976823648
	403	2	10.196000000	-23.004249913	14.946346408
	404	2	10.196000000	-24.446040640	12.449091615
	405	2	12.235000000	-22.476517880	12.976823648
	406	2	-16.313000000	-21.421053814	9.037778129
	407	2	-14.274000000	-21.948785847	11.007300889
	408	2	-14.274000000	-23.390576574	8.510046096
	409	2	-12.235000000	-23.918308607	10.479568856
	410	2	-12.235000000	-21.421053814	9.037778129
	411	2	-10.196000000	-21.948785847	11.007300889
	412	2	-10.196000000	-23.390576574	8.510046096
	413	2	-8.157000000	-23.918308607	10.479568856
	414	2	-8.157000000	-21.421053814	9.037778129
	415	2	-6.117000000	-21.948785847	11.007300889
	416	2	-6.117000000	-23.390576574	8.510046096
	417	2	-4.078000000	-23.918308607	10.479568856
	418	2	-4.078000000	-21.421053814	9.037778129
	419	2	-2.039000000	-21.948785847	11.007300889
	420	2	-2.039000000	-23.390576574	8.510046096
	421	2	0.000000000	-23.918308607	10.479568856
	422	2	0.000000000	-21.421053814	9.037778129
	423	2	2.039000000	-21.948785847	11.007300889
	424	2	2.039000000	-23.390576574	8.510046096
	425	2	4.078000000	-23.918308607	10.479568856
	426	2	4.078000000	-21.421053814	9.037778129
	427	2	6.117000000	-21.948785847	11.007300889
	428	2	6.117000000	-23.390576574	8.510046096
	429	2	8.157000000	-23.918308607	10.479568856
	430	2	8.157000000	-21.421053814	9.037778129
	431	2	10.196000000	-21.948785847	11.007300889
	432	2	10.196000000	-23.390576574	8.510046096
	433	2	12.235000000	-23.918308607	10.479568856
	434	2	12.235000000	-21.421053814	9.037778129
	435	2	14.274000000	-21.948785847	11.007300889
	436	2	14.274000000	-23.390576574	8.510046096
	437	2	16.313000000	-21.421053814	9.037778129
	438	2	-20.391000000	-20.365589748	5.098732609
	439	2	-18.352000000	-20.893321781	7.068255369
	440	2	-18.352000000	-22.335112508	4.571000576
	441	2	-16.313000000	-22.862844541	6.540523336
	442	2	-16.313000000	-20.365589748	5.098732609
	443	2	-14.274000000	-20.893321781	7.068255369
	444	2	-14.274000000	-22.335112508	4.571000576
	445	2	-12.235000000	-22.862844541	6.540523336
	446	2	-12.235000000	-20.365589748	5.098732609
	447	2	-10.196000000	-20.893321781	7.068255369
	448	2	-10.196000000	-22.335112508	4.571000576
	449	2	-8.157000000	-22.862844541	6.540523336
	450	2	-8.157000000	-20.365589748	5.098732609
	451	2	-6.117000000	-20.893321781	7.068255369
	452	2	-6.117000000	-22.335112508	4.571000576
	453	2	-4.078000000	-22.862844541	6.540523336
	454	2	-4.078000000	-20.365589748	5.098732609
	455	2	-2.039000000	-20.893321781	7.068255369
	456	2	-2.039000000	-22.335112508	4.571000576
	457	2	0.000000000	-22.862844541	6.540523336
	458	2	0.000000000	-20.365589748	5.098732609
	459	2	2.039000000	-20.893321781	7.068255369
	460	2	2.039000000	-22.335112508	4.571000576
	461	2	4.078000000	-22.862844541	6.540523336
	462	2	4.078000000	-20.365589748	5.098732609
	463	2	6.117000000	-20.893321781	7.068255369
	464	2	6.117000000	-22.335112508	4.571000576
	465	2	8.157000000	-22.862844541	6.540523336
	466	2	8.157000000	-20.365589748	5.098732609
	467	2	10.196000000	-20.893321781	7.068255369
	468	2	10.196000000	-22.335112508	4.571000576
	469	2	12.235000000	-22.862844541	6.540523336
	470	2	12.235000000	-20.365589748	5.098732609
	471	2	14.274000000	-20.893321781	7.068255369
	472	2	14.274000000	-22.335112508	4.571000576
	473	2	16.313000000	-22.862844541	6.540523336
	474	2	16.313000000	-20.365589748	5.098732609
	475	2	18.352000000	-20.893321781	7.068255369
	476	2	18.352000000	-22.335112508	4.571000576
	477	2	20.391000000	-20.365589748	5.098732609
	478	2	-20.391000000	-21.807380475	2.601477816
	479	2	-20.391000000	-19.309866863	1.158721164
	480	2	-18.352000000	-19.837857715	3.129209849
	481	2	-18.352000000	-21.279389623	0.630989131
	482	2	-16.313000000	-21.807380475	2.601477816
	483	2	-16.313000000	-19.309866863	1.158721164
	484	2	-14.274000000	-19.837857715	3.129209849
	485	2	-14.274000000	-21.279389623	0.630989131
	486	2	-12.235000000	-21.807380475	2.601477816
	487	2	-12.235000000	-19.309866863	1.158721164
	488	2	-10.196000000	-19.837857715	3.129209849
	489	2	-10.196000000	-21.279389623	0.630989131
	490	2	-8.157000000	-21.807380475	2.601477816
	491	2	-8.157000000	-19.309866863	1.158721164
	492	2	-6.117000000	-19.837857715	3.129209849
	493	2	-6.117000000	-21.279389623	0.630989131
	494	2	-4.078000000	-21.807380475	2.601477816
	495	1	-4.078000000	-19.309866863	1.158721164
	496	2	-2.039000000	-19.837857715	3.129209849
	497	2	-2.039000000	-21.279389623	0.630989131
	498	2	0.000000000	-21.807380475	2.601477816
	499	2	0.000000000	-19.309866863	1.158721164
	500	2	2.039000000	-19.837857715	3.129209849
	501	2	2.039000000	-21.279389623	0.630989131
	502	2	4.078000000	-21.807380475	2.601477816
	503	2	4.078000000	-19.309866863	1.158721164
	504	2	6.117000000	-19.837857715	3.129209849
	505	2	6.117000000	-21.279389623	0.630989131
	506	2	8.157000000	-21.807380475	2.601477816
	507	2	8.157000000	-19.309866863	1.158721164
	508	2	10.196000000	-19.837857715	3.129209849
	509	2	10.196000000	-21.279389623	0.630989131
	510	2	12.235000000	-21.807380475	2.601477816
	511	2	12.235000000	-19.309866863	1.158721164
	512	2	14.274000000	-19.837857715	3.129209849
	513	2	14.274000000	-21.279389623	0.630989131
	514	2	16.313000000	-21.807380475	2.601477816
	515	2	16.313000000	-19.309866863	1.158721164
	516	2	18.352000000	-19.837857715	3.129209849
	517	2	18.352000000	-21.279389623	0.630989131
	518	2	20.391000000	-21.807380475	2.601477816
	519	2	20.391000000	-19.309866863	1.158721164
	520	2	-22.431000000	-18.782134830	-0.810801596
	521	2	-20.391000000	-20.751657590	-1.338533629
	522	2	-20.391000000	-18.254402797	-2.780324356
	523	2	-18.352000000	-18.782134830	-0.810801596
	524	2	-18.352000000	-20.223925557	-3.308056389
	525	2	-16.313000000	-20.751657590	-1.338533629
	526	2	-16.313000000	-18.254402797	-2.780324356
	527	2	-14.274000000	-18.782134830	-0.810801596
	528	2	-14.274000000	-20.223925557	-3.308056389
	529	2	-12.235000000	-20.751657590	-1.338533629
	530	2	-12.235000000	-18.254402797	-2.780324356
	531	2	-10.196000000	-18.782134830	-0.810801596
	532	2	-10.196000000	-20.223925557	-3.308056389
	533	2	-8.157000000	-20.751657590	-1.338533629
	534	2	-8.157000000	-18.254402797	-2.780324356
	535	2	-6.117000000	-18.782134830	-0.810801596
	536	2	-6.117000000	-20.223925557	-3.308056389
	537	2	-4.078000000	-20.751657590	-1.338533629
	538	2	-4.078000000	-18.254402797	-2.780324356
	539	2	-2.039000000	-18.782134830	-0.810801596
	540	2	-2.039000000	-20.223925557	-3.308056389
	541	2	0.000000000	-20.751657590	-1.338533629
	542	2	0.000000000	-18.254402797	-2.780324356
	543	2	2.039000000	-18.782134830	-0.810801596
	544	2	2.039000000	-20.223925557	-3.308056389
	545	2	4.078000000	-20.751657590	-1.338533629
	546	2	4.078000000	-18.254402797	-2.780324356
	547	2	6.117000000	-18.782134830	-0.810801596
	548	2	6.117000000	-20.223925557	-3.308056389
	549	2	8.157000000	-20.751657590	-1.338533629
	550	2	8.157000000	-18.254402797	-2.780324356
	551	2	10.196000000	-18.782134830	-0.810801596
	552	2	10.196000000	-20.223925557	-3.308056389
	553	2	12.235000000	-20.751657590	-1.338533629
	554	2	12.235000000	-18.254402797	-2.780324356
	555	2	14.274000000	-18.782134830	-0.810801596
	556	2	14.274000000	-20.223925557	-3.308056389
	557	2	16.313000000	-20.751657590	-1.338533629
	558	2	16.313000000	-18.254402797	-2.780324356
	559	2	18.352000000	-18.782134830	-0.810801596
	560	2	18.352000000	-20.223925557	-3.308056389
	561	2	20.391000000	-20.751657590	-1.338533629
	562	2	20.391000000	-18.254402797	-2.780324356
	563	2	22.431000000	-18.782134830	-0.810801596
	564	2	-22.431000000	-17.726670764	-4.749847116
	565	2	-20.391000000	-19.696193524	-5.277579149
	566	2	-20.391000000	-17.198938731	-6.719369876
	567	2	-18.352000000	-17.726670764	-4.749847116
	568	2	-18.352000000	-19.168461491	-7.247101908
	569	2	-16.313000000	-19.696193524	-5.277579149
	570	2	-16.313000000	-17.198938731	-6.719369876
	571	2	-14.274000000	-17.726670764	-4.749847116
	572	2	-14.274000000	-19.168461491	-7.247101908
	573	2	-12.235000000	-19.696193524	-5.277579149
	574	2	-12.235000000	-17.198938731	-6.719369876
	575	2	-10.196000000	-17.726670764	-4.749847116
	576	2	-10.196000000	-19.168461491	-7.247101908
	577	2	-8.157000000	-19.696193524	-5.277579149
	578	2	-8.157000000	-17.198938731	-6.719369876
	579	1	-6.117000000	-17.726670764	-4.749847116
	580	2	-6.117000000	-19.168461491	-7.247101908
	581	2	-4.078000000	-19.696193524	-5.277579149
	582	1	-4.078000000	-17.198938731	-6.719369876
	583	2	-2.039000000	-17.726670764	-4.749847116
	584	2	-2.039000000	-19.168461491	-7.247101908
	585	2	0.000000000	-19.696193524	-5.277579149
	586	2	0.000000000	-17.198938731	-6.719369876
	587	2	2.039000000	-17.726670764	-4.749847116
	588	2	2.039000000	-19.168461491	-7.247101908
	589	1	4.078000000	-19.696193524	-5.277579149
	590	2	4.078000000	-17.198938731	-6.719369876
	591	2	6.117000000	-17.726670764	-4.749847116
	592	2	6.117000000	-19.168461491	-7.247101908
	593	2	8.157000000	-19.696193524	-5.277579149
	594	2	8.157000000	-17.198938731	-6.719369876
	595	2	10.196000000	-17.726670764	-4.749847116
	596	2	10.196000000	-19.168461491	-7.247101908
	597	2	12.235000000	-19.696193524	-5.277579149
	598	2	12.235000000	-17.198938731	-6.719369876
	599	2	14.274000000	-17.726670764	-4.749847116
	600	2	14.274000000	-19.168461491	-7.247101908
	601	2	16.313000000	-19.696193524	-5.277579149
	602	2	16.313000000	-17.198938731	-6.719369876
	603	2	18.352000000	-17.726670764	-4.749847116
	604	2	18.352000000	-19.168461491	-7.247101908
	605	2	20.391000000	-19.696193524	-5.277579149
	606	2	20.391000000	-17.198938731	-6.719369876
	607	2	22.431000000	-17.726670764	-4.749847116
	608	2	-22.431000000	-16.671206698	-8.688892635
	609	2	-20.391000000	-18.640729458	-9.216624668
	610	2	-20.391000000	-16.143474665	-10.658415395
	611	2	-18.352000000	-16.671206698	-8.688892635
	612	2	-18.352000000	-18.112997425	-11.186147428
	613	2	-16.313000000	-18.640729458	-9.216624668
	614	2	-16.313000000	-16.143474665	-10.658415395
	615	2	-14.274000000	-16.671206698	-8.688892635
	616	2	-14.274000000	-18.112997425	-11.186147428
	617	2	-12.235000000	-18.640729458	-9.216624668
	618	2	-12.235000000	-16.143474665	-10.658415395
	619	2	-10.196000000	-16.671206698	-8.688892635
	620	2	-10.196000000	-18.112997425	-11.186147428
	621	2	-8.157000000	-18.640729458	-9.216624668
	622	1	-8.157000000	-16.143474665	-10.658415395
	623	2	-6.117000000	-16.671206698	-8.688892635
	624	1	-6.117000000	-18.112997425	-11.186147428
	625	2	-4.078000000	-18.640729458	-9.216624668
	626	2	-4.078000000	-16.143474665	-10.658415395
	627	1	-2.039000000	-16.671206698	-8.688892635
	628	2	-2.039000000	-18.112997425	-11.186147428
	629	2	0.000000000	-18.640729458	-9.216624668
	630	2	0.000000000	-16.143474665	-10.658415395
	631	2	2.039000000	-16.671206698	-8.688892635
	632	2	2.039000000	-18.112997425	-11.186147428
	633	2	4.078000000	-18.640729458	-9.216624668
	634	2	4.078000000	-16.143474665	-10.658415395
	635	1	6.117000000	-16.671206698	-8.688892635
	636	2	6.117000000	-18.112997425	-11.186147428
	637	2	8.157000000	-18.640729458	-9.216624668
	638	2	8.157000000	-16.143474665	-10.658415395
	639	2	10.196000000	-16.671206698	-8.688892635